qm7_2365                                                                
SP        RPBEPBE                                                     def2TZVP            
Number of atoms                            I               11
Info1-9                                    I   N=           9
          20          19           0           0           0         110
           1          18         902
Charge                                     I                0
Multiplicity                               I                1
Number of electrons                        I               46
Number of alpha electrons                  I               23
Number of beta electrons                   I               23
Number of basis functions                  I              276
Number of independent functions            I              276
Number of point charges in /Mol/           I                0
Number of translation vectors              I                0
Atomic numbers                             I   N=          11
           6           6           6           6           6           6
           6           1           1           1           1
Nuclear charges                            R   N=          11
  6.00000000E+00  6.00000000E+00  6.00000000E+00  6.00000000E+00  6.00000000E+00
  6.00000000E+00  6.00000000E+00  1.00000000E+00  1.00000000E+00  1.00000000E+00
  1.00000000E+00
Current cartesian coordinates              R   N=          33
  5.74741306E+00  2.10477697E+00  0.00000000E+00  4.42554963E+00  2.85159673E-01
  0.00000000E+00  2.82173906E+00 -1.92241839E+00  0.00000000E+00  2.05224258E-01
 -1.14763068E+00  0.00000000E+00 -1.95114223E+00 -5.08903248E-01  0.00000000E+00
 -4.72601609E+00  3.11426867E-01  0.00000000E+00 -6.90279162E+00  9.54878615E-01
  0.00000000E+00  6.92206682E+00  3.74071288E+00  0.00000000E+00  3.21933744E+00
 -3.09385962E+00 -1.66012441E+00  3.21933744E+00 -3.09385962E+00  1.66012441E+00
 -8.83069022E+00  1.52652077E+00  0.00000000E+00
Force Field                                I                0
Int Atom Types                             I   N=          11
           0           0           0           0           0           0
           0           0           0           0           0
MM charges                                 R   N=          11
  0.00000000E+00  0.00000000E+00  0.00000000E+00  0.00000000E+00  0.00000000E+00
  0.00000000E+00  0.00000000E+00  0.00000000E+00  0.00000000E+00  0.00000000E+00
  0.00000000E+00
Integer atomic weights                     I   N=          11
          12          12          12          12          12          12
          12           1           1           1           1
Real atomic weights                        R   N=          11
  1.20000000E+01  1.20000000E+01  1.20000000E+01  1.20000000E+01  1.20000000E+01
  1.20000000E+01  1.20000000E+01  1.00782504E+00  1.00782504E+00  1.00782504E+00
  1.00782504E+00
Atom fragment info                         I   N=          11
           0           0           0           0           0           0
           0           0           0           0           0
Atom residue num                           I   N=          11
           0           0           0           0           0           0
           0           0           0           0           0
Nuclear spins                              I   N=          11
           0           0           0           0           0           0
           0           1           1           1           1
Nuclear ZEff                               R   N=          11
 -3.60000000E+00 -3.60000000E+00 -3.60000000E+00 -3.60000000E+00 -3.60000000E+00
 -3.60000000E+00 -3.60000000E+00 -1.00000000E+00 -1.00000000E+00 -1.00000000E+00
 -1.00000000E+00
Nuclear ZNuc                               R   N=          11
  6.00000000E+00  6.00000000E+00  6.00000000E+00  6.00000000E+00  6.00000000E+00
  6.00000000E+00  6.00000000E+00  1.00000000E+00  1.00000000E+00  1.00000000E+00
  1.00000000E+00
Nuclear QMom                               R   N=          11
  0.00000000E+00  0.00000000E+00  0.00000000E+00  0.00000000E+00  0.00000000E+00
  0.00000000E+00  0.00000000E+00  0.00000000E+00  0.00000000E+00  0.00000000E+00
  0.00000000E+00
Nuclear GFac                               R   N=          11
  0.00000000E+00  0.00000000E+00  0.00000000E+00  0.00000000E+00  0.00000000E+00
  0.00000000E+00  0.00000000E+00  2.79284600E+00  2.79284600E+00  2.79284600E+00
  2.79284600E+00
MicOpt                                     I   N=          11
          -1          -1          -1          -1          -1          -1
          -1          -1          -1          -1          -1
Number of contracted shells                I               93
Number of primitive shells                 I              164
Pure/Cartesian d shells                    I                1
Pure/Cartesian f shells                    I                1
Highest angular momentum                   I                3
Largest degree of contraction              I                6
Shell types                                I   N=          93
           0           0           0           0           0           1
           1           1           2           2           3           0
           0           0           0           0           1           1
           1           2           2           3           0           0
           0           0           0           1           1           1
           2           2           3           0           0           0
           0           0           1           1           1           2
           2           3           0           0           0           0
           0           1           1           1           2           2
           3           0           0           0           0           0
           1           1           1           2           2           3
           0           0           0           0           0           1
           1           1           2           2           3           0
           0           0           1           0           0           0
           1           0           0           0           1           0
           0           0           1
Number of primitives per shell             I   N=          93
           6           2           1           1           1           4
           1           1           1           1           1           6
           2           1           1           1           4           1
           1           1           1           1           6           2
           1           1           1           4           1           1
           1           1           1           6           2           1
           1           1           4           1           1           1
           1           1           6           2           1           1
           1           4           1           1           1           1
           1           6           2           1           1           1
           4           1           1           1           1           1
           6           2           1           1           1           4
           1           1           1           1           1           3
           1           1           1           3           1           1
           1           3           1           1           1           3
           1           1           1
Shell to atom map                          I   N=          93
           1           1           1           1           1           1
           1           1           1           1           1           2
           2           2           2           2           2           2
           2           2           2           2           3           3
           3           3           3           3           3           3
           3           3           3           4           4           4
           4           4           4           4           4           4
           4           4           5           5           5           5
           5           5           5           5           5           5
           5           6           6           6           6           6
           6           6           6           6           6           6
           7           7           7           7           7           7
           7           7           7           7           7           8
           8           8           8           9           9           9
           9          10          10          10          10          11
          11          11          11
Primitive exponents                        R   N=         164
  1.35753497E+04  2.03523337E+03  4.63225624E+02  1.31200196E+02  4.28530159E+01
  1.55841858E+01  6.20671385E+00  2.57648965E+00  5.76963394E-01  2.29728314E-01
  9.51644400E-02  3.46972322E+01  7.95826228E+00  2.37808269E+00  8.14332082E-01
  2.88875473E-01  1.00568237E-01  1.09700000E+00  3.18000000E-01  7.61000000E-01
  1.35753497E+04  2.03523337E+03  4.63225624E+02  1.31200196E+02  4.28530159E+01
  1.55841858E+01  6.20671385E+00  2.57648965E+00  5.76963394E-01  2.29728314E-01
  9.51644400E-02  3.46972322E+01  7.95826228E+00  2.37808269E+00  8.14332082E-01
  2.88875473E-01  1.00568237E-01  1.09700000E+00  3.18000000E-01  7.61000000E-01
  1.35753497E+04  2.03523337E+03  4.63225624E+02  1.31200196E+02  4.28530159E+01
  1.55841858E+01  6.20671385E+00  2.57648965E+00  5.76963394E-01  2.29728314E-01
  9.51644400E-02  3.46972322E+01  7.95826228E+00  2.37808269E+00  8.14332082E-01
  2.88875473E-01  1.00568237E-01  1.09700000E+00  3.18000000E-01  7.61000000E-01
  1.35753497E+04  2.03523337E+03  4.63225624E+02  1.31200196E+02  4.28530159E+01
  1.55841858E+01  6.20671385E+00  2.57648965E+00  5.76963394E-01  2.29728314E-01
  9.51644400E-02  3.46972322E+01  7.95826228E+00  2.37808269E+00  8.14332082E-01
  2.88875473E-01  1.00568237E-01  1.09700000E+00  3.18000000E-01  7.61000000E-01
  1.35753497E+04  2.03523337E+03  4.63225624E+02  1.31200196E+02  4.28530159E+01
  1.55841858E+01  6.20671385E+00  2.57648965E+00  5.76963394E-01  2.29728314E-01
  9.51644400E-02  3.46972322E+01  7.95826228E+00  2.37808269E+00  8.14332082E-01
  2.88875473E-01  1.00568237E-01  1.09700000E+00  3.18000000E-01  7.61000000E-01
  1.35753497E+04  2.03523337E+03  4.63225624E+02  1.31200196E+02  4.28530159E+01
  1.55841858E+01  6.20671385E+00  2.57648965E+00  5.76963394E-01  2.29728314E-01
  9.51644400E-02  3.46972322E+01  7.95826228E+00  2.37808269E+00  8.14332082E-01
  2.88875473E-01  1.00568237E-01  1.09700000E+00  3.18000000E-01  7.61000000E-01
  1.35753497E+04  2.03523337E+03  4.63225624E+02  1.31200196E+02  4.28530159E+01
  1.55841858E+01  6.20671385E+00  2.57648965E+00  5.76963394E-01  2.29728314E-01
  9.51644400E-02  3.46972322E+01  7.95826228E+00  2.37808269E+00  8.14332082E-01
  2.88875473E-01  1.00568237E-01  1.09700000E+00  3.18000000E-01  7.61000000E-01
  3.40613410E+01  5.12357460E+00  1.16466260E+00  3.27230410E-01  1.03072410E-01
  8.00000000E-01  3.40613410E+01  5.12357460E+00  1.16466260E+00  3.27230410E-01
  1.03072410E-01  8.00000000E-01  3.40613410E+01  5.12357460E+00  1.16466260E+00
  3.27230410E-01  1.03072410E-01  8.00000000E-01  3.40613410E+01  5.12357460E+00
  1.16466260E+00  3.27230410E-01  1.03072410E-01  8.00000000E-01
Contraction coefficients                   R   N=         164
  6.06455036E-04  4.69790889E-03  2.43324776E-02  9.73999683E-02  3.01955843E-01
  6.62336091E-01  6.55953085E-01  3.75856333E-01  1.00000000E+00  1.00000000E+00
  1.00000000E+00  1.13272200E-02  7.61696592E-02  3.01922522E-01  7.27850273E-01
  1.00000000E+00  1.00000000E+00  1.00000000E+00  1.00000000E+00  1.00000000E+00
  6.06455036E-04  4.69790889E-03  2.43324776E-02  9.73999683E-02  3.01955843E-01
  6.62336091E-01  6.55953085E-01  3.75856333E-01  1.00000000E+00  1.00000000E+00
  1.00000000E+00  1.13272200E-02  7.61696592E-02  3.01922522E-01  7.27850273E-01
  1.00000000E+00  1.00000000E+00  1.00000000E+00  1.00000000E+00  1.00000000E+00
  6.06455036E-04  4.69790889E-03  2.43324776E-02  9.73999683E-02  3.01955843E-01
  6.62336091E-01  6.55953085E-01  3.75856333E-01  1.00000000E+00  1.00000000E+00
  1.00000000E+00  1.13272200E-02  7.61696592E-02  3.01922522E-01  7.27850273E-01
  1.00000000E+00  1.00000000E+00  1.00000000E+00  1.00000000E+00  1.00000000E+00
  6.06455036E-04  4.69790889E-03  2.43324776E-02  9.73999683E-02  3.01955843E-01
  6.62336091E-01  6.55953085E-01  3.75856333E-01  1.00000000E+00  1.00000000E+00
  1.00000000E+00  1.13272200E-02  7.61696592E-02  3.01922522E-01  7.27850273E-01
  1.00000000E+00  1.00000000E+00  1.00000000E+00  1.00000000E+00  1.00000000E+00
  6.06455036E-04  4.69790889E-03  2.43324776E-02  9.73999683E-02  3.01955843E-01
  6.62336091E-01  6.55953085E-01  3.75856333E-01  1.00000000E+00  1.00000000E+00
  1.00000000E+00  1.13272200E-02  7.61696592E-02  3.01922522E-01  7.27850273E-01
  1.00000000E+00  1.00000000E+00  1.00000000E+00  1.00000000E+00  1.00000000E+00
  6.06455036E-04  4.69790889E-03  2.43324776E-02  9.73999683E-02  3.01955843E-01
  6.62336091E-01  6.55953085E-01  3.75856333E-01  1.00000000E+00  1.00000000E+00
  1.00000000E+00  1.13272200E-02  7.61696592E-02  3.01922522E-01  7.27850273E-01
  1.00000000E+00  1.00000000E+00  1.00000000E+00  1.00000000E+00  1.00000000E+00
  6.06455036E-04  4.69790889E-03  2.43324776E-02  9.73999683E-02  3.01955843E-01
  6.62336091E-01  6.55953085E-01  3.75856333E-01  1.00000000E+00  1.00000000E+00
  1.00000000E+00  1.13272200E-02  7.61696592E-02  3.01922522E-01  7.27850273E-01
  1.00000000E+00  1.00000000E+00  1.00000000E+00  1.00000000E+00  1.00000000E+00
  2.54393072E-02  1.90085949E-01  8.52441130E-01  1.00000000E+00  1.00000000E+00
  1.00000000E+00  2.54393072E-02  1.90085949E-01  8.52441130E-01  1.00000000E+00
  1.00000000E+00  1.00000000E+00  2.54393072E-02  1.90085949E-01  8.52441130E-01
  1.00000000E+00  1.00000000E+00  1.00000000E+00  2.54393072E-02  1.90085949E-01
  8.52441130E-01  1.00000000E+00  1.00000000E+00  1.00000000E+00
Coordinates of each shell                  R   N=         279
  5.74741306E+00  2.10477697E+00  0.00000000E+00  5.74741306E+00  2.10477697E+00
  0.00000000E+00  5.74741306E+00  2.10477697E+00  0.00000000E+00  5.74741306E+00
  2.10477697E+00  0.00000000E+00  5.74741306E+00  2.10477697E+00  0.00000000E+00
  5.74741306E+00  2.10477697E+00  0.00000000E+00  5.74741306E+00  2.10477697E+00
  0.00000000E+00  5.74741306E+00  2.10477697E+00  0.00000000E+00  5.74741306E+00
  2.10477697E+00  0.00000000E+00  5.74741306E+00  2.10477697E+00  0.00000000E+00
  5.74741306E+00  2.10477697E+00  0.00000000E+00  4.42554963E+00  2.85159673E-01
  0.00000000E+00  4.42554963E+00  2.85159673E-01  0.00000000E+00  4.42554963E+00
  2.85159673E-01  0.00000000E+00  4.42554963E+00  2.85159673E-01  0.00000000E+00
  4.42554963E+00  2.85159673E-01  0.00000000E+00  4.42554963E+00  2.85159673E-01
  0.00000000E+00  4.42554963E+00  2.85159673E-01  0.00000000E+00  4.42554963E+00
  2.85159673E-01  0.00000000E+00  4.42554963E+00  2.85159673E-01  0.00000000E+00
  4.42554963E+00  2.85159673E-01  0.00000000E+00  4.42554963E+00  2.85159673E-01
  0.00000000E+00  2.82173906E+00 -1.92241839E+00  0.00000000E+00  2.82173906E+00
 -1.92241839E+00  0.00000000E+00  2.82173906E+00 -1.92241839E+00  0.00000000E+00
  2.82173906E+00 -1.92241839E+00  0.00000000E+00  2.82173906E+00 -1.92241839E+00
  0.00000000E+00  2.82173906E+00 -1.92241839E+00  0.00000000E+00  2.82173906E+00
 -1.92241839E+00  0.00000000E+00  2.82173906E+00 -1.92241839E+00  0.00000000E+00
  2.82173906E+00 -1.92241839E+00  0.00000000E+00  2.82173906E+00 -1.92241839E+00
  0.00000000E+00  2.82173906E+00 -1.92241839E+00  0.00000000E+00  2.05224258E-01
 -1.14763068E+00  0.00000000E+00  2.05224258E-01 -1.14763068E+00  0.00000000E+00
  2.05224258E-01 -1.14763068E+00  0.00000000E+00  2.05224258E-01 -1.14763068E+00
  0.00000000E+00  2.05224258E-01 -1.14763068E+00  0.00000000E+00  2.05224258E-01
 -1.14763068E+00  0.00000000E+00  2.05224258E-01 -1.14763068E+00  0.00000000E+00
  2.05224258E-01 -1.14763068E+00  0.00000000E+00  2.05224258E-01 -1.14763068E+00
  0.00000000E+00  2.05224258E-01 -1.14763068E+00  0.00000000E+00  2.05224258E-01
 -1.14763068E+00  0.00000000E+00 -1.95114223E+00 -5.08903248E-01  0.00000000E+00
 -1.95114223E+00 -5.08903248E-01  0.00000000E+00 -1.95114223E+00 -5.08903248E-01
  0.00000000E+00 -1.95114223E+00 -5.08903248E-01  0.00000000E+00 -1.95114223E+00
 -5.08903248E-01  0.00000000E+00 -1.95114223E+00 -5.08903248E-01  0.00000000E+00
 -1.95114223E+00 -5.08903248E-01  0.00000000E+00 -1.95114223E+00 -5.08903248E-01
  0.00000000E+00 -1.95114223E+00 -5.08903248E-01  0.00000000E+00 -1.95114223E+00
 -5.08903248E-01  0.00000000E+00 -1.95114223E+00 -5.08903248E-01  0.00000000E+00
 -4.72601609E+00  3.11426867E-01  0.00000000E+00 -4.72601609E+00  3.11426867E-01
  0.00000000E+00 -4.72601609E+00  3.11426867E-01  0.00000000E+00 -4.72601609E+00
  3.11426867E-01  0.00000000E+00 -4.72601609E+00  3.11426867E-01  0.00000000E+00
 -4.72601609E+00  3.11426867E-01  0.00000000E+00 -4.72601609E+00  3.11426867E-01
  0.00000000E+00 -4.72601609E+00  3.11426867E-01  0.00000000E+00 -4.72601609E+00
  3.11426867E-01  0.00000000E+00 -4.72601609E+00  3.11426867E-01  0.00000000E+00
 -4.72601609E+00  3.11426867E-01  0.00000000E+00 -6.90279162E+00  9.54878615E-01
  0.00000000E+00 -6.90279162E+00  9.54878615E-01  0.00000000E+00 -6.90279162E+00
  9.54878615E-01  0.00000000E+00 -6.90279162E+00  9.54878615E-01  0.00000000E+00
 -6.90279162E+00  9.54878615E-01  0.00000000E+00 -6.90279162E+00  9.54878615E-01
  0.00000000E+00 -6.90279162E+00  9.54878615E-01  0.00000000E+00 -6.90279162E+00
  9.54878615E-01  0.00000000E+00 -6.90279162E+00  9.54878615E-01  0.00000000E+00
 -6.90279162E+00  9.54878615E-01  0.00000000E+00 -6.90279162E+00  9.54878615E-01
  0.00000000E+00  6.92206682E+00  3.74071288E+00  0.00000000E+00  6.92206682E+00
  3.74071288E+00  0.00000000E+00  6.92206682E+00  3.74071288E+00  0.00000000E+00
  6.92206682E+00  3.74071288E+00  0.00000000E+00  3.21933744E+00 -3.09385962E+00
 -1.66012441E+00  3.21933744E+00 -3.09385962E+00 -1.66012441E+00  3.21933744E+00
 -3.09385962E+00 -1.66012441E+00  3.21933744E+00 -3.09385962E+00 -1.66012441E+00
  3.21933744E+00 -3.09385962E+00  1.66012441E+00  3.21933744E+00 -3.09385962E+00
  1.66012441E+00  3.21933744E+00 -3.09385962E+00  1.66012441E+00  3.21933744E+00
 -3.09385962E+00  1.66012441E+00 -8.83069022E+00  1.52652077E+00  0.00000000E+00
 -8.83069022E+00  1.52652077E+00  0.00000000E+00 -8.83069022E+00  1.52652077E+00
  0.00000000E+00 -8.83069022E+00  1.52652077E+00  0.00000000E+00
Constraint Structure                       R   N=          33
  5.74741306E+00  2.10477697E+00  0.00000000E+00  4.42554963E+00  2.85159673E-01
  0.00000000E+00  2.82173906E+00 -1.92241839E+00  0.00000000E+00  2.05224258E-01
 -1.14763068E+00  0.00000000E+00 -1.95114223E+00 -5.08903248E-01  0.00000000E+00
 -4.72601609E+00  3.11426867E-01  0.00000000E+00 -6.90279162E+00  9.54878615E-01
  0.00000000E+00  6.92206682E+00  3.74071288E+00  0.00000000E+00  3.21933744E+00
 -3.09385962E+00 -1.66012441E+00  3.21933744E+00 -3.09385962E+00  1.66012441E+00
 -8.83069022E+00  1.52652077E+00  0.00000000E+00
Num ILSW                                   I              100
ILSW                                       I   N=         100
           0           1           0           0           2           0
           0           0           0           0        1009          -1
           5           0           0           1           0           0
           0           0           1           0           0           0
           1           1           0           0           0           0
           0           0      100000           0          -1           0
           0           0           0           0           0           0
           0           0           0           1           0           0
           0           0           1           0           0           0
           0           0           4          41           0           0
           0           0           0           0           0           0
           0           0           0           0           0           0
           0           0           0           0           0           0
           0           0           0           0           0           0
           0           0           0           0           0           0
           0           0           0           0           0           0
           0           0           0           0
Num RLSW                                   I               41
RLSW                                       R   N=          41
  1.00000000E+00  1.00000000E+00  1.00000000E+00  1.00000000E+00  0.00000000E+00
  0.00000000E+00  0.00000000E+00  1.00000000E+00  0.00000000E+00  0.00000000E+00
  0.00000000E+00  0.00000000E+00  1.00000000E+00  0.00000000E+00  0.00000000E+00
  0.00000000E+00  0.00000000E+00  1.00000000E+00  0.00000000E+00  0.00000000E+00
  0.00000000E+00  0.00000000E+00  1.00000000E+00  0.00000000E+00  0.00000000E+00
  0.00000000E+00  0.00000000E+00  1.00000000E+00  0.00000000E+00  0.00000000E+00
  0.00000000E+00  0.00000000E+00  1.00000000E+00  0.00000000E+00  0.00000000E+00
  0.00000000E+00  0.00000000E+00  0.00000000E+00  1.00000000E+00  1.00000000E+00
  0.00000000E+00
ECP-MxAtEC                                 I           250000
ECP-MaxLECP                                I               10
ECP-MaxAtL                                 I          2250000
ECP-MxTECP                                 I         11250000
ECP-LenNCZ                                 I                0
ECP-KFirst                                 I   N=         110
           0           0           0           0           0           0
           0           0           0           0           0           0
           0           0           0           0           0           0
           0           0           0           0           0           0
           0           0           0           0           0           0
           0           0           0           0           0           0
           0           0           0           0           0           0
           0           0           0           0           0           0
           0           0           0           0           0           0
           0           0           0           0           0           0
           0           0           0           0           0           0
           0           0           0           0           0           0
           0           0           0           0           0           0
           0           0           0           0           0           0
           0           0           0           0           0           0
           0           0           0           0           0           0
           0           0           0           0           0           0
           0           0           0           0           0           0
           0           0
ECP-KLast                                  I   N=         110
           0           0           0           0           0           0
           0           0           0           0           0           0
           0           0           0           0           0           0
           0           0           0           0           0           0
           0           0           0           0           0           0
           0           0           0           0           0           0
           0           0           0           0           0           0
           0           0           0           0           0           0
           0           0           0           0           0           0
           0           0           0           0           0           0
           0           0           0           0           0           0
           0           0           0           0           0           0
           0           0           0           0           0           0
           0           0           0           0           0           0
           0           0           0           0           0           0
           0           0           0           0           0           0
           0           0           0           0           0           0
           0           0           0           0           0           0
           0           0
ECP-LMax                                   I   N=          11
           0           0           0           0           0           0
           0           0           0           0           0
ECP-LPSkip                                 I   N=          11
           1           1           1           1           1           1
           1           1           1           1           1
ECP-RNFroz                                 R   N=          11
  0.00000000E+00  0.00000000E+00  0.00000000E+00  0.00000000E+00  0.00000000E+00
  0.00000000E+00  0.00000000E+00  0.00000000E+00  0.00000000E+00  0.00000000E+00
  0.00000000E+00
ECP-NLP                                    I                0
ECP-CLP1                                   R      0.000000000000000E+00
ECP-CLP2                                   R      0.000000000000000E+00
ECP-ZLP                                    R      0.000000000000000E+00
MxBond                                     I                4
NBond                                      I   N=          11
           2           2           4           2           2           2
           2           1           1           1           1
IBond                                      I   N=          44
           2           8           0           0           1           3
           0           0           2           4           9          10
           3           5           0           0           4           6
           0           0           5           7           0           0
           6          11           0           0           1           0
           0           0           3           0           0           0
           3           0           0           0           7           0
           0           0
RBond                                      R   N=          44
  3.00000000E+00  1.00000000E+00  0.00000000E+00  0.00000000E+00  3.00000000E+00
  1.00000000E+00  0.00000000E+00  0.00000000E+00  1.00000000E+00  1.00000000E+00
  1.00000000E+00  1.00000000E+00  1.00000000E+00  3.00000000E+00  0.00000000E+00
  0.00000000E+00  3.00000000E+00  1.00000000E+00  0.00000000E+00  0.00000000E+00
  1.00000000E+00  3.00000000E+00  0.00000000E+00  0.00000000E+00  3.00000000E+00
  1.00000000E+00  0.00000000E+00  0.00000000E+00  1.00000000E+00  0.00000000E+00
  0.00000000E+00  0.00000000E+00  1.00000000E+00  0.00000000E+00  0.00000000E+00
  0.00000000E+00  1.00000000E+00  0.00000000E+00  0.00000000E+00  0.00000000E+00
  1.00000000E+00  0.00000000E+00  0.00000000E+00  0.00000000E+00
Virial Ratio                               R      2.005171182032880E+00
SCF Energy                                 R     -2.686730455007435E+02
Total Energy                               R     -2.686730455007435E+02
RMS Density                                R      7.645685237918403E-09
External E-field                           R   N=          35
  0.00000000E+00  0.00000000E+00  0.00000000E+00  0.00000000E+00  0.00000000E+00
  0.00000000E+00  0.00000000E+00  0.00000000E+00  0.00000000E+00  0.00000000E+00
  0.00000000E+00  0.00000000E+00  0.00000000E+00  0.00000000E+00  0.00000000E+00
  0.00000000E+00  0.00000000E+00  0.00000000E+00  0.00000000E+00  0.00000000E+00
  0.00000000E+00  0.00000000E+00  0.00000000E+00  0.00000000E+00  0.00000000E+00
  0.00000000E+00  0.00000000E+00  0.00000000E+00  0.00000000E+00  0.00000000E+00
  0.00000000E+00  0.00000000E+00  0.00000000E+00  0.00000000E+00  0.00000000E+00
IOpCl                                      I                0
IROHF                                      I                0
Alpha Orbital Energies                     R   N=         276
 -9.94979828E+00 -9.92940108E+00 -9.92298379E+00 -9.91096154E+00 -9.90261370E+00
 -9.89977700E+00 -9.88652569E+00 -7.66668961E-01 -7.09394319E-01 -6.81576152E-01
 -6.52375247E-01 -5.37893374E-01 -4.96051952E-01 -4.71706496E-01 -4.47539000E-01
 -4.40693979E-01 -4.30761878E-01 -3.04885964E-01 -3.03973523E-01 -2.61123888E-01
 -2.57496989E-01 -2.39374374E-01 -2.38755163E-01 -5.08977221E-02 -4.83544413E-02
 -2.90056634E-03  1.20127590E-03  1.77171864E-02  4.21169425E-02  5.33484428E-02
  6.53949193E-02  7.53813547E-02  7.87777702E-02  9.84833903E-02  1.01801621E-01
  1.07861329E-01  1.18557122E-01  1.34699279E-01  1.61036805E-01  1.70652591E-01
  1.76168038E-01  1.84729823E-01  1.93135927E-01  2.09829592E-01  2.25384779E-01
  2.37478291E-01  2.72659900E-01  3.07487108E-01  3.21407472E-01  3.22760226E-01
  3.34931549E-01  3.38255597E-01  3.45212610E-01  3.60985306E-01  3.67157931E-01
  3.84203293E-01  4.04366337E-01  4.16374622E-01  4.17926406E-01  4.52349373E-01
  4.59088253E-01  4.67006461E-01  4.98072159E-01  5.04574736E-01  5.06357681E-01
  5.26610721E-01  5.58525284E-01  5.58800166E-01  5.79814771E-01  6.00858252E-01
  6.07625157E-01  6.45710282E-01  6.55056872E-01  6.71881588E-01  7.26007085E-01
  7.45478940E-01  7.59328108E-01  7.77351736E-01  7.88378268E-01  8.20033920E-01
  8.24386990E-01  8.36955919E-01  8.43874253E-01  8.66644243E-01  8.96885085E-01
  9.13618462E-01  9.20074164E-01  9.29458359E-01  9.68525183E-01  9.82621418E-01
  1.00206287E+00  1.03236880E+00  1.03669727E+00  1.05237519E+00  1.05784992E+00
  1.06428418E+00  1.07269878E+00  1.07337969E+00  1.09779840E+00  1.09856656E+00
  1.11217852E+00  1.11700999E+00  1.14178520E+00  1.18496387E+00  1.20624260E+00
  1.21351734E+00  1.22727681E+00  1.27167780E+00  1.28598937E+00  1.31748751E+00
  1.32086106E+00  1.34396220E+00  1.36494104E+00  1.37131328E+00  1.42224261E+00