qm7_0914                                                                
SP        RPBEPBE                                                     def2TZVP            
Number of atoms                            I               10
Info1-9                                    I   N=           9
          19          18           0           0           0         110
           1          18         902
Charge                                     I                0
Multiplicity                               I                1
Number of electrons                        I               44
Number of alpha electrons                  I               22
Number of beta electrons                   I               22
Number of basis functions                  I              240
Number of independent functions            I              240
Number of point charges in /Mol/           I                0
Number of translation vectors              I                0
Atomic numbers                             I   N=          10
           8           6           6           6           6           8
           1           1           1           1
Nuclear charges                            R   N=          10
  8.00000000E+00  6.00000000E+00  6.00000000E+00  6.00000000E+00  6.00000000E+00
  8.00000000E+00  1.00000000E+00  1.00000000E+00  1.00000000E+00  1.00000000E+00
Current cartesian coordinates              R   N=          30
 -4.74888177E+00 -1.49874180E+00 -5.29123317E-03 -3.74335850E+00  9.86248069E-01
  6.04712363E-03 -1.01723958E+00  8.64738678E-01  1.70075352E-03  1.22964479E+00
  7.64772166E-01 -1.88972613E-03  3.95085043E+00  6.93529491E-01 -6.42506885E-03
  5.09923700E+00 -1.31052507E+00  5.29123317E-03 -6.57624694E+00 -1.33490254E+00
  1.51178091E-03 -4.44463586E+00  1.98175580E+00 -1.66522667E+00 -4.43991155E+00
  1.96455929E+00  1.68960414E+00  4.89703630E+00  2.54583905E+00 -2.07869875E-02
Force Field                                I                0
Int Atom Types                             I   N=          10
           0           0           0           0           0           0
           0           0           0           0
MM charges                                 R   N=          10
  0.00000000E+00  0.00000000E+00  0.00000000E+00  0.00000000E+00  0.00000000E+00
  0.00000000E+00  0.00000000E+00  0.00000000E+00  0.00000000E+00  0.00000000E+00
Integer atomic weights                     I   N=          10
          16          12          12          12          12          16
           1           1           1           1
Real atomic weights                        R   N=          10
  1.59949146E+01  1.20000000E+01  1.20000000E+01  1.20000000E+01  1.20000000E+01
  1.59949146E+01  1.00782504E+00  1.00782504E+00  1.00782504E+00  1.00782504E+00
Atom fragment info                         I   N=          10
           0           0           0           0           0           0
           0           0           0           0
Atom residue num                           I   N=          10
           0           0           0           0           0           0
           0           0           0           0
Nuclear spins                              I   N=          10
           0           0           0           0           0           0
           1           1           1           1
Nuclear ZEff                               R   N=          10
 -5.60000000E+00 -3.60000000E+00 -3.60000000E+00 -3.60000000E+00 -3.60000000E+00
 -5.60000000E+00 -1.00000000E+00 -1.00000000E+00 -1.00000000E+00 -1.00000000E+00
Nuclear ZNuc                               R   N=          10
  8.00000000E+00  6.00000000E+00  6.00000000E+00  6.00000000E+00  6.00000000E+00
  8.00000000E+00  1.00000000E+00  1.00000000E+00  1.00000000E+00  1.00000000E+00
Nuclear QMom                               R   N=          10
  0.00000000E+00  0.00000000E+00  0.00000000E+00  0.00000000E+00  0.00000000E+00
  0.00000000E+00  0.00000000E+00  0.00000000E+00  0.00000000E+00  0.00000000E+00
Nuclear GFac                               R   N=          10
  0.00000000E+00  0.00000000E+00  0.00000000E+00  0.00000000E+00  0.00000000E+00
  0.00000000E+00  2.79284600E+00  2.79284600E+00  2.79284600E+00  2.79284600E+00
MicOpt                                     I   N=          10
          -1          -1          -1          -1          -1          -1
          -1          -1          -1          -1
Number of contracted shells                I               82
Number of primitive shells                 I              144
Pure/Cartesian d shells                    I                1
Pure/Cartesian f shells                    I                1
Highest angular momentum                   I                3
Largest degree of contraction              I                6
Shell types                                I   N=          82
           0           0           0           0           0           1
           1           1           2           2           3           0
           0           0           0           0           1           1
           1           2           2           3           0           0
           0           0           0           1           1           1
           2           2           3           0           0           0
           0           0           1           1           1           2
           2           3           0           0           0           0
           0           1           1           1           2           2
           3           0           0           0           0           0
           1           1           1           2           2           3
           0           0           0           1           0           0
           0           1           0           0           0           1
           0           0           0           1
Number of primitives per shell             I   N=          82
           6           2           1           1           1           4
           1           1           1           1           1           6
           2           1           1           1           4           1
           1           1           1           1           6           2
           1           1           1           4           1           1
           1           1           1           6           2           1
           1           1           4           1           1           1
           1           1           6           2           1           1
           1           4           1           1           1           1
           1           6           2           1           1           1
           4           1           1           1           1           1
           3           1           1           1           3           1
           1           1           3           1           1           1
           3           1           1           1
Shell to atom map                          I   N=          82
           1           1           1           1           1           1
           1           1           1           1           1           2
           2           2           2           2           2           2
           2           2           2           2           3           3
           3           3           3           3           3           3
           3           3           3           4           4           4
           4           4           4           4           4           4
           4           4           5           5           5           5
           5           5           5           5           5           5
           5           6           6           6           6           6
           6           6           6           6           6           6
           7           7           7           7           8           8
           8           8           9           9           9           9
          10          10          10          10
Primitive exponents                        R   N=         144
  2.70323826E+04  4.05238714E+03  9.22327227E+02  2.61240710E+02  8.53546414E+01
  3.10350352E+01  1.22608607E+01  4.99870760E+00  1.17031082E+00  4.64747410E-01
  1.85045364E-01  6.32749548E+01  1.46270494E+01  4.45012235E+00  1.52757996E+00
  5.29351179E-01  1.74784213E-01  2.31400000E+00  6.45000000E-01  1.42800000E+00
  1.35753497E+04  2.03523337E+03  4.63225624E+02  1.31200196E+02  4.28530159E+01
  1.55841858E+01  6.20671385E+00  2.57648965E+00  5.76963394E-01  2.29728314E-01
  9.51644400E-02  3.46972322E+01  7.95826228E+00  2.37808269E+00  8.14332082E-01
  2.88875473E-01  1.00568237E-01  1.09700000E+00  3.18000000E-01  7.61000000E-01
  1.35753497E+04  2.03523337E+03  4.63225624E+02  1.31200196E+02  4.28530159E+01
  1.55841858E+01  6.20671385E+00  2.57648965E+00  5.76963394E-01  2.29728314E-01
  9.51644400E-02  3.46972322E+01  7.95826228E+00  2.37808269E+00  8.14332082E-01
  2.88875473E-01  1.00568237E-01  1.09700000E+00  3.18000000E-01  7.61000000E-01
  1.35753497E+04  2.03523337E+03  4.63225624E+02  1.31200196E+02  4.28530159E+01
  1.55841858E+01  6.20671385E+00  2.57648965E+00  5.76963394E-01  2.29728314E-01
  9.51644400E-02  3.46972322E+01  7.95826228E+00  2.37808269E+00  8.14332082E-01
  2.88875473E-01  1.00568237E-01  1.09700000E+00  3.18000000E-01  7.61000000E-01
  1.35753497E+04  2.03523337E+03  4.63225624E+02  1.31200196E+02  4.28530159E+01
  1.55841858E+01  6.20671385E+00  2.57648965E+00  5.76963394E-01  2.29728314E-01
  9.51644400E-02  3.46972322E+01  7.95826228E+00  2.37808269E+00  8.14332082E-01
  2.88875473E-01  1.00568237E-01  1.09700000E+00  3.18000000E-01  7.61000000E-01
  2.70323826E+04  4.05238714E+03  9.22327227E+02  2.61240710E+02  8.53546414E+01
  3.10350352E+01  1.22608607E+01  4.99870760E+00  1.17031082E+00  4.64747410E-01
  1.85045364E-01  6.32749548E+01  1.46270494E+01  4.45012235E+00  1.52757996E+00
  5.29351179E-01  1.74784213E-01  2.31400000E+00  6.45000000E-01  1.42800000E+00
  3.40613410E+01  5.12357460E+00  1.16466260E+00  3.27230410E-01  1.03072410E-01
  8.00000000E-01  3.40613410E+01  5.12357460E+00  1.16466260E+00  3.27230410E-01
  1.03072410E-01  8.00000000E-01  3.40613410E+01  5.12357460E+00  1.16466260E+00
  3.27230410E-01  1.03072410E-01  8.00000000E-01  3.40613410E+01  5.12357460E+00
  1.16466260E+00  3.27230410E-01  1.03072410E-01  8.00000000E-01
Contraction coefficients                   R   N=         144
  5.72273352E-04  4.43532335E-03  2.30201077E-02  9.28224907E-02  2.93785000E-01
  6.74016045E-01  6.38399370E-01  3.95345871E-01  1.00000000E+00  1.00000000E+00
  1.00000000E+00  1.20183322E-02  8.30054218E-02  3.19917439E-01  7.07155429E-01
  1.00000000E+00  1.00000000E+00  1.00000000E+00  1.00000000E+00  1.00000000E+00
  6.06455036E-04  4.69790889E-03  2.43324776E-02  9.73999683E-02  3.01955843E-01
  6.62336091E-01  6.55953085E-01  3.75856333E-01  1.00000000E+00  1.00000000E+00
  1.00000000E+00  1.13272200E-02  7.61696592E-02  3.01922522E-01  7.27850273E-01
  1.00000000E+00  1.00000000E+00  1.00000000E+00  1.00000000E+00  1.00000000E+00
  6.06455036E-04  4.69790889E-03  2.43324776E-02  9.73999683E-02  3.01955843E-01
  6.62336091E-01  6.55953085E-01  3.75856333E-01  1.00000000E+00  1.00000000E+00
  1.00000000E+00  1.13272200E-02  7.61696592E-02  3.01922522E-01  7.27850273E-01
  1.00000000E+00  1.00000000E+00  1.00000000E+00  1.00000000E+00  1.00000000E+00
  6.06455036E-04  4.69790889E-03  2.43324776E-02  9.73999683E-02  3.01955843E-01
  6.62336091E-01  6.55953085E-01  3.75856333E-01  1.00000000E+00  1.00000000E+00
  1.00000000E+00  1.13272200E-02  7.61696592E-02  3.01922522E-01  7.27850273E-01
  1.00000000E+00  1.00000000E+00  1.00000000E+00  1.00000000E+00  1.00000000E+00
  6.06455036E-04  4.69790889E-03  2.43324776E-02  9.73999683E-02  3.01955843E-01
  6.62336091E-01  6.55953085E-01  3.75856333E-01  1.00000000E+00  1.00000000E+00
  1.00000000E+00  1.13272200E-02  7.61696592E-02  3.01922522E-01  7.27850273E-01
  1.00000000E+00  1.00000000E+00  1.00000000E+00  1.00000000E+00  1.00000000E+00
  5.72273352E-04  4.43532335E-03  2.30201077E-02  9.28224907E-02  2.93785000E-01
  6.74016045E-01  6.38399370E-01  3.95345871E-01  1.00000000E+00  1.00000000E+00
  1.00000000E+00  1.20183322E-02  8.30054218E-02  3.19917439E-01  7.07155429E-01
  1.00000000E+00  1.00000000E+00  1.00000000E+00  1.00000000E+00  1.00000000E+00
  2.54393072E-02  1.90085949E-01  8.52441130E-01  1.00000000E+00  1.00000000E+00
  1.00000000E+00  2.54393072E-02  1.90085949E-01  8.52441130E-01  1.00000000E+00
  1.00000000E+00  1.00000000E+00  2.54393072E-02  1.90085949E-01  8.52441130E-01
  1.00000000E+00  1.00000000E+00  1.00000000E+00  2.54393072E-02  1.90085949E-01
  8.52441130E-01  1.00000000E+00  1.00000000E+00  1.00000000E+00
Coordinates of each shell                  R   N=         246
 -4.74888177E+00 -1.49874180E+00 -5.29123317E-03 -4.74888177E+00 -1.49874180E+00
 -5.29123317E-03 -4.74888177E+00 -1.49874180E+00 -5.29123317E-03 -4.74888177E+00
 -1.49874180E+00 -5.29123317E-03 -4.74888177E+00 -1.49874180E+00 -5.29123317E-03
 -4.74888177E+00 -1.49874180E+00 -5.29123317E-03 -4.74888177E+00 -1.49874180E+00
 -5.29123317E-03 -4.74888177E+00 -1.49874180E+00 -5.29123317E-03 -4.74888177E+00
 -1.49874180E+00 -5.29123317E-03 -4.74888177E+00 -1.49874180E+00 -5.29123317E-03
 -4.74888177E+00 -1.49874180E+00 -5.29123317E-03 -3.74335850E+00  9.86248069E-01
  6.04712363E-03 -3.74335850E+00  9.86248069E-01  6.04712363E-03 -3.74335850E+00
  9.86248069E-01  6.04712363E-03 -3.74335850E+00  9.86248069E-01  6.04712363E-03
 -3.74335850E+00  9.86248069E-01  6.04712363E-03 -3.74335850E+00  9.86248069E-01
  6.04712363E-03 -3.74335850E+00  9.86248069E-01  6.04712363E-03 -3.74335850E+00
  9.86248069E-01  6.04712363E-03 -3.74335850E+00  9.86248069E-01  6.04712363E-03
 -3.74335850E+00  9.86248069E-01  6.04712363E-03 -3.74335850E+00  9.86248069E-01
  6.04712363E-03 -1.01723958E+00  8.64738678E-01  1.70075352E-03 -1.01723958E+00
  8.64738678E-01  1.70075352E-03 -1.01723958E+00  8.64738678E-01  1.70075352E-03
 -1.01723958E+00  8.64738678E-01  1.70075352E-03 -1.01723958E+00  8.64738678E-01
  1.70075352E-03 -1.01723958E+00  8.64738678E-01  1.70075352E-03 -1.01723958E+00
  8.64738678E-01  1.70075352E-03 -1.01723958E+00  8.64738678E-01  1.70075352E-03
 -1.01723958E+00  8.64738678E-01  1.70075352E-03 -1.01723958E+00  8.64738678E-01
  1.70075352E-03 -1.01723958E+00  8.64738678E-01  1.70075352E-03  1.22964479E+00
  7.64772166E-01 -1.88972613E-03  1.22964479E+00  7.64772166E-01 -1.88972613E-03
  1.22964479E+00  7.64772166E-01 -1.88972613E-03  1.22964479E+00  7.64772166E-01
 -1.88972613E-03  1.22964479E+00  7.64772166E-01 -1.88972613E-03  1.22964479E+00
  7.64772166E-01 -1.88972613E-03  1.22964479E+00  7.64772166E-01 -1.88972613E-03
  1.22964479E+00  7.64772166E-01 -1.88972613E-03  1.22964479E+00  7.64772166E-01
 -1.88972613E-03  1.22964479E+00  7.64772166E-01 -1.88972613E-03  1.22964479E+00
  7.64772166E-01 -1.88972613E-03  3.95085043E+00  6.93529491E-01 -6.42506885E-03
  3.95085043E+00  6.93529491E-01 -6.42506885E-03  3.95085043E+00  6.93529491E-01
 -6.42506885E-03  3.95085043E+00  6.93529491E-01 -6.42506885E-03  3.95085043E+00
  6.93529491E-01 -6.42506885E-03  3.95085043E+00  6.93529491E-01 -6.42506885E-03
  3.95085043E+00  6.93529491E-01 -6.42506885E-03  3.95085043E+00  6.93529491E-01
 -6.42506885E-03  3.95085043E+00  6.93529491E-01 -6.42506885E-03  3.95085043E+00
  6.93529491E-01 -6.42506885E-03  3.95085043E+00  6.93529491E-01 -6.42506885E-03
  5.09923700E+00 -1.31052507E+00  5.29123317E-03  5.09923700E+00 -1.31052507E+00
  5.29123317E-03  5.09923700E+00 -1.31052507E+00  5.29123317E-03  5.09923700E+00
 -1.31052507E+00  5.29123317E-03  5.09923700E+00 -1.31052507E+00  5.29123317E-03
  5.09923700E+00 -1.31052507E+00  5.29123317E-03  5.09923700E+00 -1.31052507E+00
  5.29123317E-03  5.09923700E+00 -1.31052507E+00  5.29123317E-03  5.09923700E+00
 -1.31052507E+00  5.29123317E-03  5.09923700E+00 -1.31052507E+00  5.29123317E-03
  5.09923700E+00 -1.31052507E+00  5.29123317E-03 -6.57624694E+00 -1.33490254E+00
  1.51178091E-03 -6.57624694E+00 -1.33490254E+00  1.51178091E-03 -6.57624694E+00
 -1.33490254E+00  1.51178091E-03 -6.57624694E+00 -1.33490254E+00  1.51178091E-03
 -4.44463586E+00  1.98175580E+00 -1.66522667E+00 -4.44463586E+00  1.98175580E+00
 -1.66522667E+00 -4.44463586E+00  1.98175580E+00 -1.66522667E+00 -4.44463586E+00
  1.98175580E+00 -1.66522667E+00 -4.43991155E+00  1.96455929E+00  1.68960414E+00
 -4.43991155E+00  1.96455929E+00  1.68960414E+00 -4.43991155E+00  1.96455929E+00
  1.68960414E+00 -4.43991155E+00  1.96455929E+00  1.68960414E+00  4.89703630E+00
  2.54583905E+00 -2.07869875E-02  4.89703630E+00  2.54583905E+00 -2.07869875E-02
  4.89703630E+00  2.54583905E+00 -2.07869875E-02  4.89703630E+00  2.54583905E+00
 -2.07869875E-02
Constraint Structure                       R   N=          30
 -4.74888177E+00 -1.49874180E+00 -5.29123317E-03 -3.74335850E+00  9.86248069E-01
  6.04712363E-03 -1.01723958E+00  8.64738678E-01  1.70075352E-03  1.22964479E+00
  7.64772166E-01 -1.88972613E-03  3.95085043E+00  6.93529491E-01 -6.42506885E-03
  5.09923700E+00 -1.31052507E+00  5.29123317E-03 -6.57624694E+00 -1.33490254E+00
  1.51178091E-03 -4.44463586E+00  1.98175580E+00 -1.66522667E+00 -4.43991155E+00
  1.96455929E+00  1.68960414E+00  4.89703630E+00  2.54583905E+00 -2.07869875E-02
Num ILSW                                   I              100
ILSW                                       I   N=         100
           0           1           0           0           2           0
           0           0           0           0        1009          -1
           5           0           0           1           0           0
           0           0           1           0           0           0
           1           1           0           0           0           0
           0           0      100000           0          -1           0
           0           0           0           0           0           0
           0           0           0           1           0           0
           0           0           1           0           0           0
           0           0           4          41           0           0
           0           0           0           0           0           0
           0           0           0           0           0           0
           0           0           0           0           0           0
           0           0           0           0           0           0
           0           0           0           0           0           0
           0           0           0           0           0           0
           0           0           0           0
Num RLSW                                   I               41
RLSW                                       R   N=          41
  1.00000000E+00  1.00000000E+00  1.00000000E+00  1.00000000E+00  0.00000000E+00
  0.00000000E+00  0.00000000E+00  1.00000000E+00  0.00000000E+00  0.00000000E+00
  0.00000000E+00  0.00000000E+00  1.00000000E+00  0.00000000E+00  0.00000000E+00
  0.00000000E+00  0.00000000E+00  1.00000000E+00  0.00000000E+00  0.00000000E+00
  0.00000000E+00  0.00000000E+00  1.00000000E+00  0.00000000E+00  0.00000000E+00
  0.00000000E+00  0.00000000E+00  1.00000000E+00  0.00000000E+00  0.00000000E+00
  0.00000000E+00  0.00000000E+00  1.00000000E+00  0.00000000E+00  0.00000000E+00
  0.00000000E+00  0.00000000E+00  0.00000000E+00  1.00000000E+00  1.00000000E+00
  0.00000000E+00
ECP-MxAtEC                                 I           250000
ECP-MaxLECP                                I               10
ECP-MaxAtL                                 I          2250000
ECP-MxTECP                                 I         11250000
ECP-LenNCZ                                 I                0
ECP-KFirst                                 I   N=         100
           0           0           0           0           0           0
           0           0           0           0           0           0
           0           0           0           0           0           0
           0           0           0           0           0           0
           0           0           0           0           0           0
           0           0           0           0           0           0
           0           0           0           0           0           0
           0           0           0           0           0           0
           0           0           0           0           0           0
           0           0           0           0           0           0
           0           0           0           0           0           0
           0           0           0           0           0           0
           0           0           0           0           0           0
           0           0           0           0           0           0
           0           0           0           0           0           0
           0           0           0           0           0           0
           0           0           0           0
ECP-KLast                                  I   N=         100
           0           0           0           0           0           0
           0           0           0           0           0           0
           0           0           0           0           0           0
           0           0           0           0           0           0
           0           0           0           0           0           0
           0           0           0           0           0           0
           0           0           0           0           0           0
           0           0           0           0           0           0
           0           0           0           0           0           0
           0           0           0           0           0           0
           0           0           0           0           0           0
           0           0           0           0           0           0
           0           0           0           0           0           0
           0           0           0           0           0           0
           0           0           0           0           0           0
           0           0           0           0           0           0
           0           0           0           0
ECP-LMax                                   I   N=          10
           0           0           0           0           0           0
           0           0           0           0
ECP-LPSkip                                 I   N=          10
           1           1           1           1           1           1
           1           1           1           1
ECP-RNFroz                                 R   N=          10
  0.00000000E+00  0.00000000E+00  0.00000000E+00  0.00000000E+00  0.00000000E+00
  0.00000000E+00  0.00000000E+00  0.00000000E+00  0.00000000E+00  0.00000000E+00
ECP-NLP                                    I                0
ECP-CLP1                                   R      0.000000000000000E+00
ECP-CLP2                                   R      0.000000000000000E+00
ECP-ZLP                                    R      0.000000000000000E+00
MxBond                                     I                4
NBond                                      I   N=          10
           2           4           2           2           3           1
           1           1           1           1
IBond                                      I   N=          40
           2           7           0           0           1           3
           8           9           2           4           0           0
           3           5           0           0           4           6
          10           0           5           0           0           0
           1           0           0           0           2           0
           0           0           2           0           0           0
           5           0           0           0
RBond                                      R   N=          40
  1.00000000E+00  1.00000000E+00  0.00000000E+00  0.00000000E+00  1.00000000E+00
  1.00000000E+00  1.00000000E+00  1.00000000E+00  1.00000000E+00  3.00000000E+00
  0.00000000E+00  0.00000000E+00  3.00000000E+00  1.00000000E+00  0.00000000E+00
  0.00000000E+00  1.00000000E+00  2.00000000E+00  1.00000000E+00  0.00000000E+00
  2.00000000E+00  0.00000000E+00  0.00000000E+00  0.00000000E+00  1.00000000E+00
  0.00000000E+00  0.00000000E+00  0.00000000E+00  1.00000000E+00  0.00000000E+00
  0.00000000E+00  0.00000000E+00  1.00000000E+00  0.00000000E+00  0.00000000E+00
  0.00000000E+00  1.00000000E+00  0.00000000E+00  0.00000000E+00  0.00000000E+00
Virial Ratio                               R      2.004037903804822E+00
SCF Energy                                 R     -3.049528637926060E+02
Total Energy                               R     -3.049528637926060E+02
RMS Density                                R      5.662996693639902E-09
External E-field                           R   N=          35
  0.00000000E+00  0.00000000E+00  0.00000000E+00  0.00000000E+00  0.00000000E+00
  0.00000000E+00  0.00000000E+00  0.00000000E+00  0.00000000E+00  0.00000000E+00
  0.00000000E+00  0.00000000E+00  0.00000000E+00  0.00000000E+00  0.00000000E+00
  0.00000000E+00  0.00000000E+00  0.00000000E+00  0.00000000E+00  0.00000000E+00
  0.00000000E+00  0.00000000E+00  0.00000000E+00  0.00000000E+00  0.00000000E+00
  0.00000000E+00  0.00000000E+00  0.00000000E+00  0.00000000E+00  0.00000000E+00
  0.00000000E+00  0.00000000E+00  0.00000000E+00  0.00000000E+00  0.00000000E+00
IOpCl                                      I                0
IROHF                                      I                0
Alpha Orbital Energies                     R   N=         240
 -1.87748217E+01 -1.87611099E+01 -9.99239223E+00 -9.97681539E+00 -9.91868245E+00
 -9.90573454E+00 -9.64257829E-01 -9.61613638E-01 -7.34838596E-01 -6.69536054E-01
 -5.96575397E-01 -4.95387319E-01 -4.75408253E-01 -4.47236100E-01 -4.43026360E-01
 -3.98964163E-01 -3.71743441E-01 -3.28349411E-01 -2.78165837E-01 -2.75413713E-01
 -2.46369236E-01 -2.27703247E-01 -1.07784192E-01 -4.23405873E-02  9.69735644E-03
  3.88529048E-02  4.28360134E-02  5.13495013E-02  9.06479158E-02  9.94712646E-02
  1.13503042E-01  1.27856511E-01  1.46088456E-01  1.69654373E-01  1.72134959E-01
  1.92324311E-01  2.18042383E-01  2.24105293E-01  2.60220588E-01  2.92385837E-01
  3.02310914E-01  3.12021120E-01  3.26316680E-01  3.52320610E-01  3.66977095E-01
  3.83863858E-01  3.84188337E-01  3.93508104E-01  4.07688567E-01  4.31115006E-01
  4.40925280E-01  4.44604007E-01  4.70496434E-01  5.00489310E-01  5.07371062E-01
  5.07487961E-01  5.45135655E-01  5.53685692E-01  5.96409044E-01  6.18255767E-01
  6.19473893E-01  6.55637489E-01  7.09976936E-01  7.37329623E-01  7.47688324E-01
  7.79895310E-01  7.91615873E-01  8.07631748E-01  8.10283705E-01  8.70493504E-01
  8.84902216E-01  9.65682448E-01  9.87327765E-01  9.87472014E-01  9.98722699E-01
  1.05135211E+00  1.06195820E+00  1.07824635E+00  1.08031922E+00  1.09524997E+00
  1.11132860E+00  1.17539528E+00  1.19318133E+00  1.22252499E+00  1.25900359E+00
  1.26750613E+00  1.31074753E+00  1.31886959E+00  1.34853516E+00  1.37703929E+00
  1.43917433E+00  1.46663241E+00  1.48770817E+00  1.50327585E+00  1.52768177E+00
  1.55005385E+00  1.59768188E+00  1.65852936E+00  1.72599456E+00  1.76695712E+00
  1.79100591E+00  1.81440193E+00  1.82621194E+00  1.88799178E+00  1.90256833E+00
  1.90736843E+00  1.91836878E+00  1.95647396E+00  1.95815074E+00  1.99132932E+00
  2.05025292E+00  2.06016839E+00  2.11276464E+00  2.14058337E+00  2.18532957E+00
  2.19377129E+00  2.21207555E+00  2.27171200E+00  2.28715788E+00  2.36208107E+00
  2.36492181E+00  2.39197522E+00  2.40789567E+00  2.40842252E+00  2.47976664E+00
  2.49079935E+00  2.50232611E+00  2.54177036E+00  2.56046733E+00  2.58102027E+00
  2.63384419E+00  2.65927186E+00  2.70610662E+00  2.73343054E+00  2.74787818E+00
  2.75645887E+00  2.78700860E+00  2.80170113E+00  2.82869468E+00  2.83015524E+00
  2.83610894E+00  2.85404616E+00  2.87163288E+00  2.89819240E+00  2.92382874E+00
  2.93692539E+00  2.96307962E+00  2.99420095E+00  2.99648206E+00  3.01561369E+00
  3.01981870E+00  3.03692388E+00  3.07106538E+00  3.12061628E+00  3.13626052E+00
  3.15156176E+00  3.16818306E+00  3.18273011E+00  3.24737500E+00  3.25227308E+00
  3.28215221E+00  3.29782845E+00  3.30360692E+00  3.32845373E+00  3.35046663E+00
  3.39216552E+00  3.41964737E+00  3.44172281E+00  3.46615688E+00  3.47755974E+00
  3.50164935E+00  3.52692952E+00  3.54183603E+00  3.57704871E+00  3.68669345E+00
  3.75654198E+00  3.75829550E+00  3.96206460E+00  4.01491830E+00  4.08870426E+00
  4.18689784E+00  4.21689740E+00  4.33714560E+00  4.34878956E+00  4.37112639E+00
  4.44756406E+00  4.49170127E+00  4.57349862E+00  4.71242204E+00  4.77081515E+00
  4.97393823E+00  5.05145662E+00  5.13431949E+00  5.16414991E+00  5.22518610E+00
  5.30897590E+00  5.36645592E+00  5.39491260E+00  5.53231592E+00  5.56699209E+00
  5.61390741E+00  5.66589243E+00  5.67776160E+00  5.70696618E+00  5.72585303E+00
  5.76198815E+00  5.77372136E+00  5.80068891E+00  5.84343488E+00  5.99984083E+00
  6.00037028E+00  6.09732997E+00  6.20757246E+00  6.27197230E+00  6.30419489E+00
  6.31002634E+00  6.31129119E+00  6.44511429E+00  6.54074771E+00  6.61489326E+00
  6.67333435E+00  6.71900685E+00  6.80141946E+00  6.99871193E+00  7.00124507E+00
  7.52636479E+00  7.66423126E+00  7.78307179E+00  7.86070688E+00  8.10539600E+00
  8.42168123E+00  8.65571516E+00  1.63827667E+01  1.64406746E+01  3.43725538E+01
  3.44458381E+01  3.45703346E+01  3.48111864E+01  7.13143563E+01  7.13694336E+01
Alpha MO coefficients                      R   N=       57600
  4.36058295E-01  6.32860533E-01  9.64175318E-02 -1.06501259E-01  5.76527545E-03
 -7.33170747E-04  1.34026001E-03  1.02252802E-05 -5.38669896E-04 -6.57437458E-04