qm7_0732                                                                
SP        RPBEPBE                                                     def2TZVP            
Number of atoms                            I               12
Info1-9                                    I   N=           9
          21          20           0           0           0         110
           1          18         902
Charge                                     I                0
Multiplicity                               I                1
Number of electrons                        I               44
Number of alpha electrons                  I               22
Number of beta electrons                   I               22
Number of basis functions                  I              252
Number of independent functions            I              252
Number of point charges in /Mol/           I                0
Number of translation vectors              I                0
Atomic numbers                             I   N=          12
           6           6           6           8           6           6
           1           1           1           1           1           1
Nuclear charges                            R   N=          12
  6.00000000E+00  6.00000000E+00  6.00000000E+00  8.00000000E+00  6.00000000E+00
  6.00000000E+00  1.00000000E+00  1.00000000E+00  1.00000000E+00  1.00000000E+00
  1.00000000E+00  1.00000000E+00
Current cartesian coordinates              R   N=          36
 -4.62189218E+00  1.93318983E-01  1.88972613E-03 -2.36329150E+00  1.33282384E+00
  1.88972613E-04  1.13383568E-03 -1.88594668E-01 -1.51178091E-03 -1.13383568E-03
 -2.50294226E+00 -1.51178091E-03  2.36404739E+00  1.33376870E+00 -2.83458920E-03
  4.62189218E+00  1.92185148E-01  3.40150704E-03 -6.35666077E+00  1.28501377E+00
  3.77945227E-03 -4.79007780E+00 -1.85476620E+00  1.88972613E-03 -2.22156204E+00
  3.37656265E+00  5.66917840E-04  2.22156204E+00  3.37391704E+00 -8.12582237E-03
  4.78894397E+00 -1.85646695E+00  9.25965805E-03  6.35628282E+00  1.28369096E+00
  2.83458920E-03
Force Field                                I                0
Int Atom Types                             I   N=          12
           0           0           0           0           0           0
           0           0           0           0           0           0
MM charges                                 R   N=          12
  0.00000000E+00  0.00000000E+00  0.00000000E+00  0.00000000E+00  0.00000000E+00
  0.00000000E+00  0.00000000E+00  0.00000000E+00  0.00000000E+00  0.00000000E+00
  0.00000000E+00  0.00000000E+00
Integer atomic weights                     I   N=          12
          12          12          12          16          12          12
           1           1           1           1           1           1
Real atomic weights                        R   N=          12
  1.20000000E+01  1.20000000E+01  1.20000000E+01  1.59949146E+01  1.20000000E+01
  1.20000000E+01  1.00782504E+00  1.00782504E+00  1.00782504E+00  1.00782504E+00
  1.00782504E+00  1.00782504E+00
Atom fragment info                         I   N=          12
           0           0           0           0           0           0
           0           0           0           0           0           0
Atom residue num                           I   N=          12
           0           0           0           0           0           0
           0           0           0           0           0           0
Nuclear spins                              I   N=          12
           0           0           0           0           0           0
           1           1           1           1           1           1
Nuclear ZEff                               R   N=          12
 -3.60000000E+00 -3.60000000E+00 -3.60000000E+00 -5.60000000E+00 -3.60000000E+00
 -3.60000000E+00 -1.00000000E+00 -1.00000000E+00 -1.00000000E+00 -1.00000000E+00
 -1.00000000E+00 -1.00000000E+00
Nuclear ZNuc                               R   N=          12
  6.00000000E+00  6.00000000E+00  6.00000000E+00  8.00000000E+00  6.00000000E+00
  6.00000000E+00  1.00000000E+00  1.00000000E+00  1.00000000E+00  1.00000000E+00
  1.00000000E+00  1.00000000E+00
Nuclear QMom                               R   N=          12
  0.00000000E+00  0.00000000E+00  0.00000000E+00  0.00000000E+00  0.00000000E+00
  0.00000000E+00  0.00000000E+00  0.00000000E+00  0.00000000E+00  0.00000000E+00
  0.00000000E+00  0.00000000E+00
Nuclear GFac                               R   N=          12
  0.00000000E+00  0.00000000E+00  0.00000000E+00  0.00000000E+00  0.00000000E+00
  0.00000000E+00  2.79284600E+00  2.79284600E+00  2.79284600E+00  2.79284600E+00
  2.79284600E+00  2.79284600E+00
MicOpt                                     I   N=          12
          -1          -1          -1          -1          -1          -1
          -1          -1          -1          -1          -1          -1
Number of contracted shells                I               90
Number of primitive shells                 I              156
Pure/Cartesian d shells                    I                1
Pure/Cartesian f shells                    I                1
Highest angular momentum                   I                3
Largest degree of contraction              I                6
Shell types                                I   N=          90
           0           0           0           0           0           1
           1           1           2           2           3           0
           0           0           0           0           1           1
           1           2           2           3           0           0
           0           0           0           1           1           1
           2           2           3           0           0           0
           0           0           1           1           1           2
           2           3           0           0           0           0
           0           1           1           1           2           2
           3           0           0           0           0           0
           1           1           1           2           2           3
           0           0           0           1           0           0
           0           1           0           0           0           1
           0           0           0           1           0           0
           0           1           0           0           0           1
Number of primitives per shell             I   N=          90
           6           2           1           1           1           4
           1           1           1           1           1           6
           2           1           1           1           4           1
           1           1           1           1           6           2
           1           1           1           4           1           1
           1           1           1           6           2           1
           1           1           4           1           1           1
           1           1           6           2           1           1
           1           4           1           1           1           1
           1           6           2           1           1           1
           4           1           1           1           1           1
           3           1           1           1           3           1
           1           1           3           1           1           1
           3           1           1           1           3           1
           1           1           3           1           1           1
Shell to atom map                          I   N=          90
           1           1           1           1           1           1
           1           1           1           1           1           2
           2           2           2           2           2           2
           2           2           2           2           3           3
           3           3           3           3           3           3
           3           3           3           4           4           4
           4           4           4           4           4           4
           4           4           5           5           5           5
           5           5           5           5           5           5
           5           6           6           6           6           6
           6           6           6           6           6           6
           7           7           7           7           8           8
           8           8           9           9           9           9
          10          10          10          10          11          11
          11          11          12          12          12          12
Primitive exponents                        R   N=         156
  1.35753497E+04  2.03523337E+03  4.63225624E+02  1.31200196E+02  4.28530159E+01
  1.55841858E+01  6.20671385E+00  2.57648965E+00  5.76963394E-01  2.29728314E-01
  9.51644400E-02  3.46972322E+01  7.95826228E+00  2.37808269E+00  8.14332082E-01
  2.88875473E-01  1.00568237E-01  1.09700000E+00  3.18000000E-01  7.61000000E-01
  1.35753497E+04  2.03523337E+03  4.63225624E+02  1.31200196E+02  4.28530159E+01
  1.55841858E+01  6.20671385E+00  2.57648965E+00  5.76963394E-01  2.29728314E-01
  9.51644400E-02  3.46972322E+01  7.95826228E+00  2.37808269E+00  8.14332082E-01
  2.88875473E-01  1.00568237E-01  1.09700000E+00  3.18000000E-01  7.61000000E-01
  1.35753497E+04  2.03523337E+03  4.63225624E+02  1.31200196E+02  4.28530159E+01
  1.55841858E+01  6.20671385E+00  2.57648965E+00  5.76963394E-01  2.29728314E-01
  9.51644400E-02  3.46972322E+01  7.95826228E+00  2.37808269E+00  8.14332082E-01
  2.88875473E-01  1.00568237E-01  1.09700000E+00  3.18000000E-01  7.61000000E-01
  2.70323826E+04  4.05238714E+03  9.22327227E+02  2.61240710E+02  8.53546414E+01
  3.10350352E+01  1.22608607E+01  4.99870760E+00  1.17031082E+00  4.64747410E-01
  1.85045364E-01  6.32749548E+01  1.46270494E+01  4.45012235E+00  1.52757996E+00
  5.29351179E-01  1.74784213E-01  2.31400000E+00  6.45000000E-01  1.42800000E+00
  1.35753497E+04  2.03523337E+03  4.63225624E+02  1.31200196E+02  4.28530159E+01
  1.55841858E+01  6.20671385E+00  2.57648965E+00  5.76963394E-01  2.29728314E-01
  9.51644400E-02  3.46972322E+01  7.95826228E+00  2.37808269E+00  8.14332082E-01
  2.88875473E-01  1.00568237E-01  1.09700000E+00  3.18000000E-01  7.61000000E-01
  1.35753497E+04  2.03523337E+03  4.63225624E+02  1.31200196E+02  4.28530159E+01
  1.55841858E+01  6.20671385E+00  2.57648965E+00  5.76963394E-01  2.29728314E-01
  9.51644400E-02  3.46972322E+01  7.95826228E+00  2.37808269E+00  8.14332082E-01
  2.88875473E-01  1.00568237E-01  1.09700000E+00  3.18000000E-01  7.61000000E-01
  3.40613410E+01  5.12357460E+00  1.16466260E+00  3.27230410E-01  1.03072410E-01
  8.00000000E-01  3.40613410E+01  5.12357460E+00  1.16466260E+00  3.27230410E-01
  1.03072410E-01  8.00000000E-01  3.40613410E+01  5.12357460E+00  1.16466260E+00
  3.27230410E-01  1.03072410E-01  8.00000000E-01  3.40613410E+01  5.12357460E+00
  1.16466260E+00  3.27230410E-01  1.03072410E-01  8.00000000E-01  3.40613410E+01
  5.12357460E+00  1.16466260E+00  3.27230410E-01  1.03072410E-01  8.00000000E-01
  3.40613410E+01  5.12357460E+00  1.16466260E+00  3.27230410E-01  1.03072410E-01
  8.00000000E-01
Contraction coefficients                   R   N=         156
  6.06455036E-04  4.69790889E-03  2.43324776E-02  9.73999683E-02  3.01955843E-01
  6.62336091E-01  6.55953085E-01  3.75856333E-01  1.00000000E+00  1.00000000E+00
  1.00000000E+00  1.13272200E-02  7.61696592E-02  3.01922522E-01  7.27850273E-01
  1.00000000E+00  1.00000000E+00  1.00000000E+00  1.00000000E+00  1.00000000E+00
  6.06455036E-04  4.69790889E-03  2.43324776E-02  9.73999683E-02  3.01955843E-01
  6.62336091E-01  6.55953085E-01  3.75856333E-01  1.00000000E+00  1.00000000E+00
  1.00000000E+00  1.13272200E-02  7.61696592E-02  3.01922522E-01  7.27850273E-01
  1.00000000E+00  1.00000000E+00  1.00000000E+00  1.00000000E+00  1.00000000E+00
  6.06455036E-04  4.69790889E-03  2.43324776E-02  9.73999683E-02  3.01955843E-01
  6.62336091E-01  6.55953085E-01  3.75856333E-01  1.00000000E+00  1.00000000E+00
  1.00000000E+00  1.13272200E-02  7.61696592E-02  3.01922522E-01  7.27850273E-01
  1.00000000E+00  1.00000000E+00  1.00000000E+00  1.00000000E+00  1.00000000E+00
  5.72273352E-04  4.43532335E-03  2.30201077E-02  9.28224907E-02  2.93785000E-01
  6.74016045E-01  6.38399370E-01  3.95345871E-01  1.00000000E+00  1.00000000E+00
  1.00000000E+00  1.20183322E-02  8.30054218E-02  3.19917439E-01  7.07155429E-01
  1.00000000E+00  1.00000000E+00  1.00000000E+00  1.00000000E+00  1.00000000E+00
  6.06455036E-04  4.69790889E-03  2.43324776E-02  9.73999683E-02  3.01955843E-01
  6.62336091E-01  6.55953085E-01  3.75856333E-01  1.00000000E+00  1.00000000E+00
  1.00000000E+00  1.13272200E-02  7.61696592E-02  3.01922522E-01  7.27850273E-01
  1.00000000E+00  1.00000000E+00  1.00000000E+00  1.00000000E+00  1.00000000E+00
  6.06455036E-04  4.69790889E-03  2.43324776E-02  9.73999683E-02  3.01955843E-01
  6.62336091E-01  6.55953085E-01  3.75856333E-01  1.00000000E+00  1.00000000E+00
  1.00000000E+00  1.13272200E-02  7.61696592E-02  3.01922522E-01  7.27850273E-01
  1.00000000E+00  1.00000000E+00  1.00000000E+00  1.00000000E+00  1.00000000E+00
  2.54393072E-02  1.90085949E-01  8.52441130E-01  1.00000000E+00  1.00000000E+00
  1.00000000E+00  2.54393072E-02  1.90085949E-01  8.52441130E-01  1.00000000E+00
  1.00000000E+00  1.00000000E+00  2.54393072E-02  1.90085949E-01  8.52441130E-01
  1.00000000E+00  1.00000000E+00  1.00000000E+00  2.54393072E-02  1.90085949E-01
  8.52441130E-01  1.00000000E+00  1.00000000E+00  1.00000000E+00  2.54393072E-02
  1.90085949E-01  8.52441130E-01  1.00000000E+00  1.00000000E+00  1.00000000E+00
  2.54393072E-02  1.90085949E-01  8.52441130E-01  1.00000000E+00  1.00000000E+00
  1.00000000E+00
Coordinates of each shell                  R   N=         270
 -4.62189218E+00  1.93318983E-01  1.88972613E-03 -4.62189218E+00  1.93318983E-01
  1.88972613E-03 -4.62189218E+00  1.93318983E-01  1.88972613E-03 -4.62189218E+00
  1.93318983E-01  1.88972613E-03 -4.62189218E+00  1.93318983E-01  1.88972613E-03
 -4.62189218E+00  1.93318983E-01  1.88972613E-03 -4.62189218E+00  1.93318983E-01
  1.88972613E-03 -4.62189218E+00  1.93318983E-01  1.88972613E-03 -4.62189218E+00
  1.93318983E-01  1.88972613E-03 -4.62189218E+00  1.93318983E-01  1.88972613E-03
 -4.62189218E+00  1.93318983E-01  1.88972613E-03 -2.36329150E+00  1.33282384E+00
  1.88972613E-04 -2.36329150E+00  1.33282384E+00  1.88972613E-04 -2.36329150E+00
  1.33282384E+00  1.88972613E-04 -2.36329150E+00  1.33282384E+00  1.88972613E-04
 -2.36329150E+00  1.33282384E+00  1.88972613E-04 -2.36329150E+00  1.33282384E+00
  1.88972613E-04 -2.36329150E+00  1.33282384E+00  1.88972613E-04 -2.36329150E+00
  1.33282384E+00  1.88972613E-04 -2.36329150E+00  1.33282384E+00  1.88972613E-04
 -2.36329150E+00  1.33282384E+00  1.88972613E-04 -2.36329150E+00  1.33282384E+00
  1.88972613E-04  1.13383568E-03 -1.88594668E-01 -1.51178091E-03  1.13383568E-03
 -1.88594668E-01 -1.51178091E-03  1.13383568E-03 -1.88594668E-01 -1.51178091E-03
  1.13383568E-03 -1.88594668E-01 -1.51178091E-03  1.13383568E-03 -1.88594668E-01
 -1.51178091E-03  1.13383568E-03 -1.88594668E-01 -1.51178091E-03  1.13383568E-03
 -1.88594668E-01 -1.51178091E-03  1.13383568E-03 -1.88594668E-01 -1.51178091E-03
  1.13383568E-03 -1.88594668E-01 -1.51178091E-03  1.13383568E-03 -1.88594668E-01
 -1.51178091E-03  1.13383568E-03 -1.88594668E-01 -1.51178091E-03 -1.13383568E-03
 -2.50294226E+00 -1.51178091E-03 -1.13383568E-03 -2.50294226E+00 -1.51178091E-03
 -1.13383568E-03 -2.50294226E+00 -1.51178091E-03 -1.13383568E-03 -2.50294226E+00
 -1.51178091E-03 -1.13383568E-03 -2.50294226E+00 -1.51178091E-03 -1.13383568E-03
 -2.50294226E+00 -1.51178091E-03 -1.13383568E-03 -2.50294226E+00 -1.51178091E-03
 -1.13383568E-03 -2.50294226E+00 -1.51178091E-03 -1.13383568E-03 -2.50294226E+00
 -1.51178091E-03 -1.13383568E-03 -2.50294226E+00 -1.51178091E-03 -1.13383568E-03
 -2.50294226E+00 -1.51178091E-03  2.36404739E+00  1.33376870E+00 -2.83458920E-03
  2.36404739E+00  1.33376870E+00 -2.83458920E-03  2.36404739E+00  1.33376870E+00
 -2.83458920E-03  2.36404739E+00  1.33376870E+00 -2.83458920E-03  2.36404739E+00
  1.33376870E+00 -2.83458920E-03  2.36404739E+00  1.33376870E+00 -2.83458920E-03
  2.36404739E+00  1.33376870E+00 -2.83458920E-03  2.36404739E+00  1.33376870E+00
 -2.83458920E-03  2.36404739E+00  1.33376870E+00 -2.83458920E-03  2.36404739E+00
  1.33376870E+00 -2.83458920E-03  2.36404739E+00  1.33376870E+00 -2.83458920E-03
  4.62189218E+00  1.92185148E-01  3.40150704E-03  4.62189218E+00  1.92185148E-01
  3.40150704E-03  4.62189218E+00  1.92185148E-01  3.40150704E-03  4.62189218E+00
  1.92185148E-01  3.40150704E-03  4.62189218E+00  1.92185148E-01  3.40150704E-03
  4.62189218E+00  1.92185148E-01  3.40150704E-03  4.62189218E+00  1.92185148E-01
  3.40150704E-03  4.62189218E+00  1.92185148E-01  3.40150704E-03  4.62189218E+00
  1.92185148E-01  3.40150704E-03  4.62189218E+00  1.92185148E-01  3.40150704E-03
  4.62189218E+00  1.92185148E-01  3.40150704E-03 -6.35666077E+00  1.28501377E+00
  3.77945227E-03 -6.35666077E+00  1.28501377E+00  3.77945227E-03 -6.35666077E+00
  1.28501377E+00  3.77945227E-03 -6.35666077E+00  1.28501377E+00  3.77945227E-03
 -4.79007780E+00 -1.85476620E+00  1.88972613E-03 -4.79007780E+00 -1.85476620E+00
  1.88972613E-03 -4.79007780E+00 -1.85476620E+00  1.88972613E-03 -4.79007780E+00
 -1.85476620E+00  1.88972613E-03 -2.22156204E+00  3.37656265E+00  5.66917840E-04
 -2.22156204E+00  3.37656265E+00  5.66917840E-04 -2.22156204E+00  3.37656265E+00
  5.66917840E-04 -2.22156204E+00  3.37656265E+00  5.66917840E-04  2.22156204E+00
  3.37391704E+00 -8.12582237E-03  2.22156204E+00  3.37391704E+00 -8.12582237E-03
  2.22156204E+00  3.37391704E+00 -8.12582237E-03  2.22156204E+00  3.37391704E+00
 -8.12582237E-03  4.78894397E+00 -1.85646695E+00  9.25965805E-03  4.78894397E+00
 -1.85646695E+00  9.25965805E-03  4.78894397E+00 -1.85646695E+00  9.25965805E-03
  4.78894397E+00 -1.85646695E+00  9.25965805E-03  6.35628282E+00  1.28369096E+00
  2.83458920E-03  6.35628282E+00  1.28369096E+00  2.83458920E-03  6.35628282E+00
  1.28369096E+00  2.83458920E-03  6.35628282E+00  1.28369096E+00  2.83458920E-03
Constraint Structure                       R   N=          36
 -4.62189218E+00  1.93318983E-01  1.88972613E-03 -2.36329150E+00  1.33282384E+00
  1.88972613E-04  1.13383568E-03 -1.88594668E-01 -1.51178091E-03 -1.13383568E-03
 -2.50294226E+00 -1.51178091E-03  2.36404739E+00  1.33376870E+00 -2.83458920E-03
  4.62189218E+00  1.92185148E-01  3.40150704E-03 -6.35666077E+00  1.28501377E+00
  3.77945227E-03 -4.79007780E+00 -1.85476620E+00  1.88972613E-03 -2.22156204E+00
  3.37656265E+00  5.66917840E-04  2.22156204E+00  3.37391704E+00 -8.12582237E-03
  4.78894397E+00 -1.85646695E+00  9.25965805E-03  6.35628282E+00  1.28369096E+00
  2.83458920E-03
Num ILSW                                   I              100
ILSW                                       I   N=         100
           0           1           0           0           2           0
           0           0           0           0        1009          -1
           5           0           0           1           0           0
           0           0           1           0           0           0
           1           1           0           0           0           0
           0           0      100000           0          -1           0
           0           0           0           0           0           0
           0           0           0           1           0           0
           0           0           1           0           0           0
           0           0           4          41           0           0
           0           0           0           0           0           0
           0           0           0           0           0           0
           0           0           0           0           0           0
           0           0           0           0           0           0
           0           0           0           0           0           0
           0           0           0           0           0           0
           0           0           0           0
Num RLSW                                   I               41
RLSW                                       R   N=          41
  1.00000000E+00  1.00000000E+00  1.00000000E+00  1.00000000E+00  0.00000000E+00
  0.00000000E+00  0.00000000E+00  1.00000000E+00  0.00000000E+00  0.00000000E+00
  0.00000000E+00  0.00000000E+00  1.00000000E+00  0.00000000E+00  0.00000000E+00
  0.00000000E+00  0.00000000E+00  1.00000000E+00  0.00000000E+00  0.00000000E+00
  0.00000000E+00  0.00000000E+00  1.00000000E+00  0.00000000E+00  0.00000000E+00
  0.00000000E+00  0.00000000E+00  1.00000000E+00  0.00000000E+00  0.00000000E+00
  0.00000000E+00  0.00000000E+00  1.00000000E+00  0.00000000E+00  0.00000000E+00
  0.00000000E+00  0.00000000E+00  0.00000000E+00  1.00000000E+00  1.00000000E+00
  0.00000000E+00
ECP-MxAtEC                                 I           250000
ECP-MaxLECP                                I               10
ECP-MaxAtL                                 I          2250000
ECP-MxTECP                                 I         11250000
ECP-LenNCZ                                 I                0
ECP-KFirst                                 I   N=         120
           0           0           0           0           0           0
           0           0           0           0           0           0
           0           0           0           0           0           0
           0           0           0           0           0           0
           0           0           0           0           0           0
           0           0           0           0           0           0
           0           0           0           0           0           0
           0           0           0           0           0           0
           0           0           0           0           0           0
           0           0           0           0           0           0
           0           0           0           0           0           0
           0           0           0           0           0           0
           0           0           0           0           0           0
           0           0           0           0           0           0
           0           0           0           0           0           0
           0           0           0           0           0           0
           0           0           0           0           0           0
           0           0           0           0           0           0
           0           0           0           0           0           0
           0           0           0           0           0           0
ECP-KLast                                  I   N=         120
           0           0           0           0           0           0
           0           0           0           0           0           0
           0           0           0           0           0           0
           0           0           0           0           0           0
           0           0           0           0           0           0
           0           0           0           0           0           0
           0           0           0           0           0           0
           0           0           0           0           0           0
           0           0           0           0           0           0
           0           0           0           0           0           0
           0           0           0           0           0           0
           0           0           0           0           0           0
           0           0           0           0           0           0
           0           0           0           0           0           0
           0           0           0           0           0           0
           0           0           0           0           0           0
           0           0           0           0           0           0
           0           0           0           0           0           0
           0           0           0           0           0           0
           0           0           0           0           0           0
ECP-LMax                                   I   N=          12
           0           0           0           0           0           0
           0           0           0           0           0           0
ECP-LPSkip                                 I   N=          12
           1           1           1           1           1           1
           1           1           1           1           1           1
ECP-RNFroz                                 R   N=          12
  0.00000000E+00  0.00000000E+00  0.00000000E+00  0.00000000E+00  0.00000000E+00
  0.00000000E+00  0.00000000E+00  0.00000000E+00  0.00000000E+00  0.00000000E+00
  0.00000000E+00  0.00000000E+00
ECP-NLP                                    I                0
ECP-CLP1                                   R      0.000000000000000E+00
ECP-CLP2                                   R      0.000000000000000E+00
ECP-ZLP                                    R      0.000000000000000E+00
MxBond                                     I                3
NBond                                      I   N=          12
           3           3           3           1           3           3
           1           1           1           1           1           1
IBond                                      I   N=          36
           2           7           8           1           3           9
           2           4           5           3           0           0
           3           6          10           5          11          12
           1           0           0           1           0           0
           2           0           0           5           0           0
           6           0           0           6           0           0
RBond                                      R   N=          36
  2.00000000E+00  1.00000000E+00  1.00000000E+00  2.00000000E+00  1.00000000E+00
  1.00000000E+00  1.00000000E+00  2.00000000E+00  1.00000000E+00  2.00000000E+00
  0.00000000E+00  0.00000000E+00  1.00000000E+00  2.00000000E+00  1.00000000E+00
  2.00000000E+00  1.00000000E+00  1.00000000E+00  1.00000000E+00  0.00000000E+00
  0.00000000E+00  1.00000000E+00  0.00000000E+00  0.00000000E+00  1.00000000E+00
  0.00000000E+00  0.00000000E+00  1.00000000E+00  0.00000000E+00  0.00000000E+00
  1.00000000E+00  0.00000000E+00  0.00000000E+00  1.00000000E+00  0.00000000E+00
  0.00000000E+00
Virial Ratio                               R      2.004865955109957E+00
SCF Energy                                 R     -2.690829391629210E+02
Total Energy                               R     -2.690829391629210E+02
RMS Density                                R      4.102348301374715E-09
External E-field                           R   N=          35
  0.00000000E+00  0.00000000E+00  0.00000000E+00  0.00000000E+00  0.00000000E+00
  0.00000000E+00  0.00000000E+00  0.00000000E+00  0.00000000E+00  0.00000000E+00
  0.00000000E+00  0.00000000E+00  0.00000000E+00  0.00000000E+00  0.00000000E+00
  0.00000000E+00  0.00000000E+00  0.00000000E+00  0.00000000E+00  0.00000000E+00
  0.00000000E+00  0.00000000E+00  0.00000000E+00  0.00000000E+00  0.00000000E+00
  0.00000000E+00  0.00000000E+00  0.00000000E+00  0.00000000E+00  0.00000000E+00
  0.00000000E+00  0.00000000E+00  0.00000000E+00  0.00000000E+00  0.00000000E+00
IOpCl                                      I                0
IROHF                                      I                0
Alpha Orbital Energies                     R   N=         252
 -1.87381487E+01 -9.96952888E+00 -9.90725060E+00 -9.90710103E+00 -9.90376554E+00
 -9.90372863E+00 -9.47694921E-01 -7.28878786E-01 -7.09799245E-01 -6.06881694E-01
 -5.24712313E-01 -4.74256874E-01 -4.58839681E-01 -4.17118755E-01 -3.90283702E-01
 -3.68469785E-01 -3.63924310E-01 -3.37550781E-01 -3.34798351E-01 -2.62483021E-01
 -2.55303908E-01 -2.13044416E-01 -1.20424921E-01 -3.87784059E-02  2.69753506E-02
  4.31673463E-02  5.35464269E-02  5.76516891E-02  8.59815821E-02  8.83962629E-02
  1.19873177E-01  1.23222919E-01  1.43237735E-01  1.60163559E-01  1.72730462E-01
  1.76205973E-01  1.77648455E-01  1.95354366E-01  2.12362497E-01  2.36361951E-01
  2.53569435E-01  2.63576325E-01  2.65515641E-01  2.74890857E-01  3.05473592E-01
  3.10893135E-01  3.29645627E-01  3.56900040E-01  3.58442091E-01  3.87880849E-01
  4.07196871E-01  4.16313866E-01  4.21841421E-01  4.31002088E-01  4.53853283E-01
  4.74634081E-01  4.82621769E-01  4.88470648E-01  5.08576496E-01  5.24064766E-01
  5.39557881E-01  5.62911504E-01  5.86218741E-01  6.04893442E-01  6.10010300E-01
  6.20163455E-01  6.28716526E-01  6.88839217E-01  7.03843011E-01  7.25031353E-01
  7.50551724E-01  7.83117158E-01  8.19453099E-01  8.29092767E-01  8.30184713E-01
  8.65086618E-01  8.78845473E-01  9.16862579E-01  9.23698393E-01  9.54968085E-01
  9.93277629E-01  1.00832620E+00  1.01275793E+00  1.04215256E+00  1.06194533E+00
  1.06721712E+00  1.09799901E+00  1.09812440E+00  1.12986996E+00  1.15183440E+00
  1.15881077E+00  1.16839379E+00  1.23912392E+00  1.24091896E+00  1.28463181E+00
  1.29095728E+00  1.32517852E+00  1.32938384E+00  1.34666425E+00  1.35650714E+00
  1.37102484E+00  1.40943319E+00  1.44811897E+00  1.52238115E+00  1.55024412E+00
  1.58325809E+00  1.61995430E+00  1.64999527E+00  1.67571230E+00  1.69424526E+00
  1.69715431E+00  1.72583648E+00  1.73279173E+00  1.75623283E+00  1.80778455E+00
  1.84811172E+00  1.93188608E+00  1.94052891E+00  1.97451423E+00  2.00892562E+00