qm7_1089                                                                
SP        RPBEPBE                                                     def2TZVP            
Number of atoms                            I               11
Info1-9                                    I   N=           9
          20          19           0           0           0         110
           1          18         902
Charge                                     I                0
Multiplicity                               I                1
Number of electrons                        I               44
Number of alpha electrons                  I               22
Number of beta electrons                   I               22
Number of basis functions                  I              246
Number of independent functions            I              246
Number of point charges in /Mol/           I                0
Number of translation vectors              I                0
Atomic numbers                             I   N=          11
           7           6           6           6           6           8
           1           1           1           1           1
Nuclear charges                            R   N=          11
  7.00000000E+00  6.00000000E+00  6.00000000E+00  6.00000000E+00  6.00000000E+00
  8.00000000E+00  1.00000000E+00  1.00000000E+00  1.00000000E+00  1.00000000E+00
  1.00000000E+00
Current cartesian coordinates              R   N=          33
  4.88683178E+00  9.18217928E-01 -1.45508912E-01  3.05266360E+00 -2.18263368E-01
  1.28879322E-01  7.51544083E-01 -1.64425071E+00  4.72998451E-01 -1.22454253E+00
 -1.55146516E-01 -8.84391830E-01 -2.80246386E+00  1.81942832E+00  4.36337764E-01
 -3.75431891E+00 -6.71608668E-01 -4.55423998E-02  9.05556763E-01 -3.53208711E+00
 -3.57536184E-01  3.01411318E-01 -1.86440380E+00  2.48083247E+00 -9.28422449E-01
 -9.25965805E-03 -2.90564290E+00 -2.37217321E+00  2.31321376E+00  2.37651958E+00
 -3.56874780E+00  3.35634258E+00 -6.80679353E-01
Force Field                                I                0
Int Atom Types                             I   N=          11
           0           0           0           0           0           0
           0           0           0           0           0
MM charges                                 R   N=          11
  0.00000000E+00  0.00000000E+00  0.00000000E+00  0.00000000E+00  0.00000000E+00
  0.00000000E+00  0.00000000E+00  0.00000000E+00  0.00000000E+00  0.00000000E+00
  0.00000000E+00
Integer atomic weights                     I   N=          11
          14          12          12          12          12          16
           1           1           1           1           1
Real atomic weights                        R   N=          11
  1.40030740E+01  1.20000000E+01  1.20000000E+01  1.20000000E+01  1.20000000E+01
  1.59949146E+01  1.00782504E+00  1.00782504E+00  1.00782504E+00  1.00782504E+00
  1.00782504E+00
Atom fragment info                         I   N=          11
           0           0           0           0           0           0
           0           0           0           0           0
Atom residue num                           I   N=          11
           0           0           0           0           0           0
           0           0           0           0           0
Nuclear spins                              I   N=          11
           2           0           0           0           0           0
           1           1           1           1           1
Nuclear ZEff                               R   N=          11
 -4.55000000E+00 -3.60000000E+00 -3.60000000E+00 -3.60000000E+00 -3.60000000E+00
 -5.60000000E+00 -1.00000000E+00 -1.00000000E+00 -1.00000000E+00 -1.00000000E+00
 -1.00000000E+00
Nuclear ZNuc                               R   N=          11
  7.00000000E+00  6.00000000E+00  6.00000000E+00  6.00000000E+00  6.00000000E+00
  8.00000000E+00  1.00000000E+00  1.00000000E+00  1.00000000E+00  1.00000000E+00
  1.00000000E+00
Nuclear QMom                               R   N=          11
  2.04400000E+00  0.00000000E+00  0.00000000E+00  0.00000000E+00  0.00000000E+00
  0.00000000E+00  0.00000000E+00  0.00000000E+00  0.00000000E+00  0.00000000E+00
  0.00000000E+00
Nuclear GFac                               R   N=          11
  4.03761000E-01  0.00000000E+00  0.00000000E+00  0.00000000E+00  0.00000000E+00
  0.00000000E+00  2.79284600E+00  2.79284600E+00  2.79284600E+00  2.79284600E+00
  2.79284600E+00
MicOpt                                     I   N=          11
          -1          -1          -1          -1          -1          -1
          -1          -1          -1          -1          -1
Number of contracted shells                I               86
Number of primitive shells                 I              150
Pure/Cartesian d shells                    I                1
Pure/Cartesian f shells                    I                1
Highest angular momentum                   I                3
Largest degree of contraction              I                6
Shell types                                I   N=          86
           0           0           0           0           0           1
           1           1           2           2           3           0
           0           0           0           0           1           1
           1           2           2           3           0           0
           0           0           0           1           1           1
           2           2           3           0           0           0
           0           0           1           1           1           2
           2           3           0           0           0           0
           0           1           1           1           2           2
           3           0           0           0           0           0
           1           1           1           2           2           3
           0           0           0           1           0           0
           0           1           0           0           0           1
           0           0           0           1           0           0
           0           1
Number of primitives per shell             I   N=          86
           6           2           1           1           1           4
           1           1           1           1           1           6
           2           1           1           1           4           1
           1           1           1           1           6           2
           1           1           1           4           1           1
           1           1           1           6           2           1
           1           1           4           1           1           1
           1           1           6           2           1           1
           1           4           1           1           1           1
           1           6           2           1           1           1
           4           1           1           1           1           1
           3           1           1           1           3           1
           1           1           3           1           1           1
           3           1           1           1           3           1
           1           1
Shell to atom map                          I   N=          86
           1           1           1           1           1           1
           1           1           1           1           1           2
           2           2           2           2           2           2
           2           2           2           2           3           3
           3           3           3           3           3           3
           3           3           3           4           4           4
           4           4           4           4           4           4
           4           4           5           5           5           5
           5           5           5           5           5           5
           5           6           6           6           6           6
           6           6           6           6           6           6
           7           7           7           7           8           8
           8           8           9           9           9           9
          10          10          10          10          11          11
          11          11
Primitive exponents                        R   N=         150
  1.97308006E+04  2.95789587E+03  6.73221336E+02  1.90682495E+02  6.22954419E+01
  2.26541612E+01  8.97914774E+00  3.68630024E+00  8.46600768E-01  3.36471338E-01
  1.36476537E-01  4.92003805E+01  1.13467905E+01  3.42739724E+00  1.17855251E+00
  4.16422050E-01  1.42608260E-01  1.65400000E+00  4.69000000E-01  1.09300000E+00
  1.35753497E+04  2.03523337E+03  4.63225624E+02  1.31200196E+02  4.28530159E+01
  1.55841858E+01  6.20671385E+00  2.57648965E+00  5.76963394E-01  2.29728314E-01
  9.51644400E-02  3.46972322E+01  7.95826228E+00  2.37808269E+00  8.14332082E-01
  2.88875473E-01  1.00568237E-01  1.09700000E+00  3.18000000E-01  7.61000000E-01
  1.35753497E+04  2.03523337E+03  4.63225624E+02  1.31200196E+02  4.28530159E+01
  1.55841858E+01  6.20671385E+00  2.57648965E+00  5.76963394E-01  2.29728314E-01
  9.51644400E-02  3.46972322E+01  7.95826228E+00  2.37808269E+00  8.14332082E-01
  2.88875473E-01  1.00568237E-01  1.09700000E+00  3.18000000E-01  7.61000000E-01
  1.35753497E+04  2.03523337E+03  4.63225624E+02  1.31200196E+02  4.28530159E+01
  1.55841858E+01  6.20671385E+00  2.57648965E+00  5.76963394E-01  2.29728314E-01
  9.51644400E-02  3.46972322E+01  7.95826228E+00  2.37808269E+00  8.14332082E-01
  2.88875473E-01  1.00568237E-01  1.09700000E+00  3.18000000E-01  7.61000000E-01
  1.35753497E+04  2.03523337E+03  4.63225624E+02  1.31200196E+02  4.28530159E+01
  1.55841858E+01  6.20671385E+00  2.57648965E+00  5.76963394E-01  2.29728314E-01
  9.51644400E-02  3.46972322E+01  7.95826228E+00  2.37808269E+00  8.14332082E-01
  2.88875473E-01  1.00568237E-01  1.09700000E+00  3.18000000E-01  7.61000000E-01
  2.70323826E+04  4.05238714E+03  9.22327227E+02  2.61240710E+02  8.53546414E+01
  3.10350352E+01  1.22608607E+01  4.99870760E+00  1.17031082E+00  4.64747410E-01
  1.85045364E-01  6.32749548E+01  1.46270494E+01  4.45012235E+00  1.52757996E+00
  5.29351179E-01  1.74784213E-01  2.31400000E+00  6.45000000E-01  1.42800000E+00
  3.40613410E+01  5.12357460E+00  1.16466260E+00  3.27230410E-01  1.03072410E-01
  8.00000000E-01  3.40613410E+01  5.12357460E+00  1.16466260E+00  3.27230410E-01
  1.03072410E-01  8.00000000E-01  3.40613410E+01  5.12357460E+00  1.16466260E+00
  3.27230410E-01  1.03072410E-01  8.00000000E-01  3.40613410E+01  5.12357460E+00
  1.16466260E+00  3.27230410E-01  1.03072410E-01  8.00000000E-01  3.40613410E+01
  5.12357460E+00  1.16466260E+00  3.27230410E-01  1.03072410E-01  8.00000000E-01
Contraction coefficients                   R   N=         150
  5.86264026E-04  4.54288206E-03  2.35584135E-02  9.47091933E-02  2.97197849E-01
  6.69162469E-01  6.45966836E-01  3.87005744E-01  1.00000000E+00  1.00000000E+00
  1.00000000E+00  1.14488251E-02  7.84223380E-02  3.08180947E-01  7.20271964E-01
  1.00000000E+00  1.00000000E+00  1.00000000E+00  1.00000000E+00  1.00000000E+00
  6.06455036E-04  4.69790889E-03  2.43324776E-02  9.73999683E-02  3.01955843E-01
  6.62336091E-01  6.55953085E-01  3.75856333E-01  1.00000000E+00  1.00000000E+00
  1.00000000E+00  1.13272200E-02  7.61696592E-02  3.01922522E-01  7.27850273E-01
  1.00000000E+00  1.00000000E+00  1.00000000E+00  1.00000000E+00  1.00000000E+00
  6.06455036E-04  4.69790889E-03  2.43324776E-02  9.73999683E-02  3.01955843E-01
  6.62336091E-01  6.55953085E-01  3.75856333E-01  1.00000000E+00  1.00000000E+00
  1.00000000E+00  1.13272200E-02  7.61696592E-02  3.01922522E-01  7.27850273E-01
  1.00000000E+00  1.00000000E+00  1.00000000E+00  1.00000000E+00  1.00000000E+00
  6.06455036E-04  4.69790889E-03  2.43324776E-02  9.73999683E-02  3.01955843E-01
  6.62336091E-01  6.55953085E-01  3.75856333E-01  1.00000000E+00  1.00000000E+00
  1.00000000E+00  1.13272200E-02  7.61696592E-02  3.01922522E-01  7.27850273E-01
  1.00000000E+00  1.00000000E+00  1.00000000E+00  1.00000000E+00  1.00000000E+00
  6.06455036E-04  4.69790889E-03  2.43324776E-02  9.73999683E-02  3.01955843E-01
  6.62336091E-01  6.55953085E-01  3.75856333E-01  1.00000000E+00  1.00000000E+00
  1.00000000E+00  1.13272200E-02  7.61696592E-02  3.01922522E-01  7.27850273E-01
  1.00000000E+00  1.00000000E+00  1.00000000E+00  1.00000000E+00  1.00000000E+00
  5.72273352E-04  4.43532335E-03  2.30201077E-02  9.28224907E-02  2.93785000E-01
  6.74016045E-01  6.38399370E-01  3.95345871E-01  1.00000000E+00  1.00000000E+00
  1.00000000E+00  1.20183322E-02  8.30054218E-02  3.19917439E-01  7.07155429E-01
  1.00000000E+00  1.00000000E+00  1.00000000E+00  1.00000000E+00  1.00000000E+00
  2.54393072E-02  1.90085949E-01  8.52441130E-01  1.00000000E+00  1.00000000E+00
  1.00000000E+00  2.54393072E-02  1.90085949E-01  8.52441130E-01  1.00000000E+00
  1.00000000E+00  1.00000000E+00  2.54393072E-02  1.90085949E-01  8.52441130E-01
  1.00000000E+00  1.00000000E+00  1.00000000E+00  2.54393072E-02  1.90085949E-01
  8.52441130E-01  1.00000000E+00  1.00000000E+00  1.00000000E+00  2.54393072E-02
  1.90085949E-01  8.52441130E-01  1.00000000E+00  1.00000000E+00  1.00000000E+00
Coordinates of each shell                  R   N=         258
  4.88683178E+00  9.18217928E-01 -1.45508912E-01  4.88683178E+00  9.18217928E-01
 -1.45508912E-01  4.88683178E+00  9.18217928E-01 -1.45508912E-01  4.88683178E+00
  9.18217928E-01 -1.45508912E-01  4.88683178E+00  9.18217928E-01 -1.45508912E-01
  4.88683178E+00  9.18217928E-01 -1.45508912E-01  4.88683178E+00  9.18217928E-01
 -1.45508912E-01  4.88683178E+00  9.18217928E-01 -1.45508912E-01  4.88683178E+00
  9.18217928E-01 -1.45508912E-01  4.88683178E+00  9.18217928E-01 -1.45508912E-01
  4.88683178E+00  9.18217928E-01 -1.45508912E-01  3.05266360E+00 -2.18263368E-01
  1.28879322E-01  3.05266360E+00 -2.18263368E-01  1.28879322E-01  3.05266360E+00
 -2.18263368E-01  1.28879322E-01  3.05266360E+00 -2.18263368E-01  1.28879322E-01
  3.05266360E+00 -2.18263368E-01  1.28879322E-01  3.05266360E+00 -2.18263368E-01
  1.28879322E-01  3.05266360E+00 -2.18263368E-01  1.28879322E-01  3.05266360E+00
 -2.18263368E-01  1.28879322E-01  3.05266360E+00 -2.18263368E-01  1.28879322E-01
  3.05266360E+00 -2.18263368E-01  1.28879322E-01  3.05266360E+00 -2.18263368E-01
  1.28879322E-01  7.51544083E-01 -1.64425071E+00  4.72998451E-01  7.51544083E-01
 -1.64425071E+00  4.72998451E-01  7.51544083E-01 -1.64425071E+00  4.72998451E-01
  7.51544083E-01 -1.64425071E+00  4.72998451E-01  7.51544083E-01 -1.64425071E+00
  4.72998451E-01  7.51544083E-01 -1.64425071E+00  4.72998451E-01  7.51544083E-01
 -1.64425071E+00  4.72998451E-01  7.51544083E-01 -1.64425071E+00  4.72998451E-01
  7.51544083E-01 -1.64425071E+00  4.72998451E-01  7.51544083E-01 -1.64425071E+00
  4.72998451E-01  7.51544083E-01 -1.64425071E+00  4.72998451E-01 -1.22454253E+00
 -1.55146516E-01 -8.84391830E-01 -1.22454253E+00 -1.55146516E-01 -8.84391830E-01
 -1.22454253E+00 -1.55146516E-01 -8.84391830E-01 -1.22454253E+00 -1.55146516E-01
 -8.84391830E-01 -1.22454253E+00 -1.55146516E-01 -8.84391830E-01 -1.22454253E+00
 -1.55146516E-01 -8.84391830E-01 -1.22454253E+00 -1.55146516E-01 -8.84391830E-01
 -1.22454253E+00 -1.55146516E-01 -8.84391830E-01 -1.22454253E+00 -1.55146516E-01
 -8.84391830E-01 -1.22454253E+00 -1.55146516E-01 -8.84391830E-01 -1.22454253E+00
 -1.55146516E-01 -8.84391830E-01 -2.80246386E+00  1.81942832E+00  4.36337764E-01
 -2.80246386E+00  1.81942832E+00  4.36337764E-01 -2.80246386E+00  1.81942832E+00
  4.36337764E-01 -2.80246386E+00  1.81942832E+00  4.36337764E-01 -2.80246386E+00
  1.81942832E+00  4.36337764E-01 -2.80246386E+00  1.81942832E+00  4.36337764E-01
 -2.80246386E+00  1.81942832E+00  4.36337764E-01 -2.80246386E+00  1.81942832E+00
  4.36337764E-01 -2.80246386E+00  1.81942832E+00  4.36337764E-01 -2.80246386E+00
  1.81942832E+00  4.36337764E-01 -2.80246386E+00  1.81942832E+00  4.36337764E-01
 -3.75431891E+00 -6.71608668E-01 -4.55423998E-02 -3.75431891E+00 -6.71608668E-01
 -4.55423998E-02 -3.75431891E+00 -6.71608668E-01 -4.55423998E-02 -3.75431891E+00
 -6.71608668E-01 -4.55423998E-02 -3.75431891E+00 -6.71608668E-01 -4.55423998E-02
 -3.75431891E+00 -6.71608668E-01 -4.55423998E-02 -3.75431891E+00 -6.71608668E-01
 -4.55423998E-02 -3.75431891E+00 -6.71608668E-01 -4.55423998E-02 -3.75431891E+00
 -6.71608668E-01 -4.55423998E-02 -3.75431891E+00 -6.71608668E-01 -4.55423998E-02
 -3.75431891E+00 -6.71608668E-01 -4.55423998E-02  9.05556763E-01 -3.53208711E+00
 -3.57536184E-01  9.05556763E-01 -3.53208711E+00 -3.57536184E-01  9.05556763E-01
 -3.53208711E+00 -3.57536184E-01  9.05556763E-01 -3.53208711E+00 -3.57536184E-01
  3.01411318E-01 -1.86440380E+00  2.48083247E+00  3.01411318E-01 -1.86440380E+00
  2.48083247E+00  3.01411318E-01 -1.86440380E+00  2.48083247E+00  3.01411318E-01
 -1.86440380E+00  2.48083247E+00 -9.28422449E-01 -9.25965805E-03 -2.90564290E+00
 -9.28422449E-01 -9.25965805E-03 -2.90564290E+00 -9.28422449E-01 -9.25965805E-03
 -2.90564290E+00 -9.28422449E-01 -9.25965805E-03 -2.90564290E+00 -2.37217321E+00
  2.31321376E+00  2.37651958E+00 -2.37217321E+00  2.31321376E+00  2.37651958E+00
 -2.37217321E+00  2.31321376E+00  2.37651958E+00 -2.37217321E+00  2.31321376E+00
  2.37651958E+00 -3.56874780E+00  3.35634258E+00 -6.80679353E-01 -3.56874780E+00
  3.35634258E+00 -6.80679353E-01 -3.56874780E+00  3.35634258E+00 -6.80679353E-01
 -3.56874780E+00  3.35634258E+00 -6.80679353E-01
Constraint Structure                       R   N=          33
  4.88683178E+00  9.18217928E-01 -1.45508912E-01  3.05266360E+00 -2.18263368E-01
  1.28879322E-01  7.51544083E-01 -1.64425071E+00  4.72998451E-01 -1.22454253E+00
 -1.55146516E-01 -8.84391830E-01 -2.80246386E+00  1.81942832E+00  4.36337764E-01
 -3.75431891E+00 -6.71608668E-01 -4.55423998E-02  9.05556763E-01 -3.53208711E+00
 -3.57536184E-01  3.01411318E-01 -1.86440380E+00  2.48083247E+00 -9.28422449E-01
 -9.25965805E-03 -2.90564290E+00 -2.37217321E+00  2.31321376E+00  2.37651958E+00
 -3.56874780E+00  3.35634258E+00 -6.80679353E-01
Num ILSW                                   I              100
ILSW                                       I   N=         100
           0           1           0           0           2           0
           0           0           0           0        1009          -1
           5           0           0           1           0           0
           0           0           1           0           0           0
           1           1           0           0           0           0
           0           0      100000           0          -1           0
           0           0           0           0           0           0
           0           0           0           1           0           0
           0           0           1           0           0           0
           0           0           4          41           0           0
           0           0           0           0           0           0
           0           0           0           0           0           0
           0           0           0           0           0           0
           0           0           0           0           0           0
           0           0           0           0           0           0
           0           0           0           0           0           0
           0           0           0           0
Num RLSW                                   I               41
RLSW                                       R   N=          41
  1.00000000E+00  1.00000000E+00  1.00000000E+00  1.00000000E+00  0.00000000E+00
  0.00000000E+00  0.00000000E+00  1.00000000E+00  0.00000000E+00  0.00000000E+00
  0.00000000E+00  0.00000000E+00  1.00000000E+00  0.00000000E+00  0.00000000E+00
  0.00000000E+00  0.00000000E+00  1.00000000E+00  0.00000000E+00  0.00000000E+00
  0.00000000E+00  0.00000000E+00  1.00000000E+00  0.00000000E+00  0.00000000E+00
  0.00000000E+00  0.00000000E+00  1.00000000E+00  0.00000000E+00  0.00000000E+00
  0.00000000E+00  0.00000000E+00  1.00000000E+00  0.00000000E+00  0.00000000E+00
  0.00000000E+00  0.00000000E+00  0.00000000E+00  1.00000000E+00  1.00000000E+00
  0.00000000E+00
ECP-MxAtEC                                 I           250000
ECP-MaxLECP                                I               10
ECP-MaxAtL                                 I          2250000
ECP-MxTECP                                 I         11250000
ECP-LenNCZ                                 I                0
ECP-KFirst                                 I   N=         110
           0           0           0           0           0           0
           0           0           0           0           0           0
           0           0           0           0           0           0
           0           0           0           0           0           0
           0           0           0           0           0           0
           0           0           0           0           0           0
           0           0           0           0           0           0
           0           0           0           0           0           0
           0           0           0           0           0           0
           0           0           0           0           0           0
           0           0           0           0           0           0
           0           0           0           0           0           0
           0           0           0           0           0           0
           0           0           0           0           0           0
           0           0           0           0           0           0
           0           0           0           0           0           0
           0           0           0           0           0           0
           0           0           0           0           0           0
           0           0
ECP-KLast                                  I   N=         110
           0           0           0           0           0           0
           0           0           0           0           0           0
           0           0           0           0           0           0
           0           0           0           0           0           0
           0           0           0           0           0           0
           0           0           0           0           0           0
           0           0           0           0           0           0
           0           0           0           0           0           0
           0           0           0           0           0           0
           0           0           0           0           0           0
           0           0           0           0           0           0
           0           0           0           0           0           0
           0           0           0           0           0           0
           0           0           0           0           0           0
           0           0           0           0           0           0
           0           0           0           0           0           0
           0           0           0           0           0           0
           0           0           0           0           0           0
           0           0
ECP-LMax                                   I   N=          11
           0           0           0           0           0           0
           0           0           0           0           0
ECP-LPSkip                                 I   N=          11
           1           1           1           1           1           1
           1           1           1           1           1
ECP-RNFroz                                 R   N=          11
  0.00000000E+00  0.00000000E+00  0.00000000E+00  0.00000000E+00  0.00000000E+00
  0.00000000E+00  0.00000000E+00  0.00000000E+00  0.00000000E+00  0.00000000E+00
  0.00000000E+00
ECP-NLP                                    I                0
ECP-CLP1                                   R      0.000000000000000E+00
ECP-CLP2                                   R      0.000000000000000E+00
ECP-ZLP                                    R      0.000000000000000E+00
MxBond                                     I                4
NBond                                      I   N=          11
           1           2           4           4           4           2
           1           1           1           1           1
IBond                                      I   N=          44
           2           0           0           0           1           3
           0           0           2           4           7           8
           3           5           6           9           4           6
          10          11           4           5           0           0
           3           0           0           0           3           0
           0           0           4           0           0           0
           5           0           0           0           5           0
           0           0
RBond                                      R   N=          44
  3.00000000E+00  0.00000000E+00  0.00000000E+00  0.00000000E+00  3.00000000E+00
  1.00000000E+00  0.00000000E+00  0.00000000E+00  1.00000000E+00  1.00000000E+00
  1.00000000E+00  1.00000000E+00  1.00000000E+00  1.00000000E+00  1.00000000E+00
  1.00000000E+00  1.00000000E+00  1.00000000E+00  1.00000000E+00  1.00000000E+00
  1.00000000E+00  1.00000000E+00  0.00000000E+00  0.00000000E+00  1.00000000E+00
  0.00000000E+00  0.00000000E+00  0.00000000E+00  1.00000000E+00  0.00000000E+00
  0.00000000E+00  0.00000000E+00  1.00000000E+00  0.00000000E+00  0.00000000E+00
  0.00000000E+00  1.00000000E+00  0.00000000E+00  0.00000000E+00  0.00000000E+00
  1.00000000E+00  0.00000000E+00  0.00000000E+00  0.00000000E+00
Virial Ratio                               R      2.004522244342032E+00
SCF Energy                                 R     -2.851144396346751E+02
Total Energy                               R     -2.851144396346751E+02
RMS Density                                R      9.653397737686024E-09
External E-field                           R   N=          35
  0.00000000E+00  0.00000000E+00  0.00000000E+00  0.00000000E+00  0.00000000E+00
  0.00000000E+00  0.00000000E+00  0.00000000E+00  0.00000000E+00  0.00000000E+00
  0.00000000E+00  0.00000000E+00  0.00000000E+00  0.00000000E+00  0.00000000E+00
  0.00000000E+00  0.00000000E+00  0.00000000E+00  0.00000000E+00  0.00000000E+00
  0.00000000E+00  0.00000000E+00  0.00000000E+00  0.00000000E+00  0.00000000E+00
  0.00000000E+00  0.00000000E+00  0.00000000E+00  0.00000000E+00  0.00000000E+00
  0.00000000E+00  0.00000000E+00  0.00000000E+00  0.00000000E+00  0.00000000E+00
IOpCl                                      I                0
IROHF                                      I                0
Alpha Orbital Energies                     R   N=         246
 -1.87926692E+01 -1.39876114E+01 -9.97316145E+00 -9.95898072E+00 -9.94881011E+00
 -9.92899546E+00 -1.00805303E+00 -8.36574828E-01 -7.46917696E-01 -6.20103959E-01
 -5.79324991E-01 -4.99002374E-01 -4.73747254E-01 -4.56486820E-01 -4.16462315E-01
 -3.82852242E-01 -3.68834308E-01 -3.17248364E-01 -3.06876861E-01 -3.04547160E-01
 -2.86407439E-01 -2.49901918E-01 -2.16901927E-02 -1.51391542E-02  1.10840088E-02
  2.02388627E-02  3.42485184E-02  3.82955800E-02  4.29585858E-02  8.67999205E-02
  9.41681728E-02  9.93568178E-02  1.31395338E-01  1.49296740E-01  1.65598898E-01
  1.87596833E-01  2.02118834E-01  2.11517684E-01  2.23904543E-01  2.48711434E-01
  2.54067319E-01  2.66054254E-01  2.84236462E-01  3.16364768E-01  3.22022980E-01
  3.34818946E-01  3.40808769E-01  3.54483831E-01  3.60830391E-01  3.68562181E-01
  3.83993260E-01  3.96098682E-01  4.02990869E-01  4.29926682E-01  4.36393217E-01
  4.43559905E-01  4.72483353E-01  4.94684676E-01  5.56889761E-01  5.76428669E-01
  5.86473901E-01  6.07493775E-01  6.34763154E-01  6.76590765E-01  7.09211092E-01
  7.16502385E-01  7.41951065E-01  7.80009071E-01  7.90167140E-01  8.29808367E-01
  8.42449017E-01  8.70779915E-01  9.02033625E-01  9.13797276E-01  9.43835786E-01
  9.76550792E-01  9.97163719E-01  1.00498847E+00  1.03149759E+00  1.06312785E+00
  1.07281600E+00  1.08329026E+00  1.09553908E+00  1.11008599E+00  1.13314203E+00
  1.15316597E+00  1.20416836E+00  1.21485905E+00  1.23175515E+00  1.25075372E+00
  1.25656713E+00  1.30408009E+00  1.31750195E+00  1.34987279E+00  1.40525706E+00
  1.44112262E+00  1.46575313E+00  1.48113597E+00  1.54239386E+00  1.54472976E+00
  1.58154648E+00  1.60820317E+00  1.66128366E+00  1.72379574E+00  1.74282613E+00
  1.77218518E+00  1.77782160E+00  1.79342861E+00  1.82207124E+00  1.83666576E+00
  1.88343553E+00  1.92198275E+00  1.95747211E+00  1.99112298E+00  2.01716880E+00
  2.06694184E+00  2.10490785E+00  2.11327273E+00  2.13032008E+00  2.15414002E+00
  2.19198222E+00  2.26031432E+00  2.30198907E+00  2.30653807E+00  2.33780490E+00
  2.37086884E+00  2.39621399E+00  2.42015980E+00  2.45152071E+00  2.46063877E+00
  2.48515164E+00  2.48649805E+00  2.55487916E+00  2.57196416E+00  2.60164561E+00
  2.61565587E+00  2.64542904E+00  2.68027843E+00  2.71126296E+00  2.72298350E+00
  2.75527388E+00  2.80263678E+00  2.81404525E+00  2.84950925E+00  2.87067242E+00
  2.88299813E+00  2.88337071E+00  2.91266113E+00  2.92321927E+00  2.94290739E+00
  2.95939711E+00  2.96460218E+00  2.99220231E+00  3.01800105E+00  3.02711980E+00
  3.04225497E+00  3.05891881E+00  3.06310056E+00  3.11015694E+00  3.12298090E+00
  3.15714393E+00  3.17005079E+00  3.21499414E+00  3.22826627E+00  3.24873887E+00
  3.26343400E+00  3.30681273E+00  3.32535206E+00  3.35482004E+00  3.37636896E+00
  3.41390084E+00  3.43302819E+00  3.44335493E+00  3.48313524E+00  3.51910446E+00
  3.55014880E+00  3.59074158E+00  3.60336140E+00  3.69755689E+00  3.74926178E+00