qm7_0992                                                                
SP        RPBEPBE                                                     def2TZVP            
Number of atoms                            I               12
Info1-9                                    I   N=           9
          21          20           0           0           0         110
           1          18         902
Charge                                     I                0
Multiplicity                               I                1
Number of electrons                        I               42
Number of alpha electrons                  I               21
Number of beta electrons                   I               21
Number of basis functions                  I              252
Number of independent functions            I              252
Number of point charges in /Mol/           I                0
Number of translation vectors              I                0
Atomic numbers                             I   N=          12
           6           6           6           6           6           6
           1           1           1           1           1           1
Nuclear charges                            R   N=          12
  6.00000000E+00  6.00000000E+00  6.00000000E+00  6.00000000E+00  6.00000000E+00
  6.00000000E+00  1.00000000E+00  1.00000000E+00  1.00000000E+00  1.00000000E+00
  1.00000000E+00  1.00000000E+00
Current cartesian coordinates              R   N=          36
  5.38571948E-02 -3.35256313E+00  4.75077150E-01  3.72276048E-02 -7.77811276E-01
 -8.40928129E-01 -2.30470999E+00  5.99988047E-01 -1.96909463E-01 -4.20445167E+00
  1.72928838E+00  3.27867484E-01  2.28033252E+00  6.36270789E-01 -1.97098436E-01
  4.12924057E+00  1.80185387E+00  3.33725635E-01  1.73665832E+00 -4.44406895E+00
 -4.47865093E-02 -1.61307023E+00 -4.46542285E+00 -5.02667151E-02  4.87549342E-02
 -3.15357497E+00  2.53922500E+00  3.09915086E-02 -1.12022965E+00 -2.88655667E+00
 -5.87893800E+00  2.74199262E+00  8.00487990E-01  5.77878251E+00  2.85291954E+00
  8.12582237E-01
Force Field                                I                0
Int Atom Types                             I   N=          12
           0           0           0           0           0           0
           0           0           0           0           0           0
MM charges                                 R   N=          12
  0.00000000E+00  0.00000000E+00  0.00000000E+00  0.00000000E+00  0.00000000E+00
  0.00000000E+00  0.00000000E+00  0.00000000E+00  0.00000000E+00  0.00000000E+00
  0.00000000E+00  0.00000000E+00
Integer atomic weights                     I   N=          12
          12          12          12          12          12          12
           1           1           1           1           1           1
Real atomic weights                        R   N=          12
  1.20000000E+01  1.20000000E+01  1.20000000E+01  1.20000000E+01  1.20000000E+01
  1.20000000E+01  1.00782504E+00  1.00782504E+00  1.00782504E+00  1.00782504E+00
  1.00782504E+00  1.00782504E+00
Atom fragment info                         I   N=          12
           0           0           0           0           0           0
           0           0           0           0           0           0
Atom residue num                           I   N=          12
           0           0           0           0           0           0
           0           0           0           0           0           0
Nuclear spins                              I   N=          12
           0           0           0           0           0           0
           1           1           1           1           1           1
Nuclear ZEff                               R   N=          12
 -3.60000000E+00 -3.60000000E+00 -3.60000000E+00 -3.60000000E+00 -3.60000000E+00
 -3.60000000E+00 -1.00000000E+00 -1.00000000E+00 -1.00000000E+00 -1.00000000E+00
 -1.00000000E+00 -1.00000000E+00
Nuclear ZNuc                               R   N=          12
  6.00000000E+00  6.00000000E+00  6.00000000E+00  6.00000000E+00  6.00000000E+00
  6.00000000E+00  1.00000000E+00  1.00000000E+00  1.00000000E+00  1.00000000E+00
  1.00000000E+00  1.00000000E+00
Nuclear QMom                               R   N=          12
  0.00000000E+00  0.00000000E+00  0.00000000E+00  0.00000000E+00  0.00000000E+00
  0.00000000E+00  0.00000000E+00  0.00000000E+00  0.00000000E+00  0.00000000E+00
  0.00000000E+00  0.00000000E+00
Nuclear GFac                               R   N=          12
  0.00000000E+00  0.00000000E+00  0.00000000E+00  0.00000000E+00  0.00000000E+00
  0.00000000E+00  2.79284600E+00  2.79284600E+00  2.79284600E+00  2.79284600E+00
  2.79284600E+00  2.79284600E+00
MicOpt                                     I   N=          12
          -1          -1          -1          -1          -1          -1
          -1          -1          -1          -1          -1          -1
Number of contracted shells                I               90
Number of primitive shells                 I              156
Pure/Cartesian d shells                    I                1
Pure/Cartesian f shells                    I                1
Highest angular momentum                   I                3
Largest degree of contraction              I                6
Shell types                                I   N=          90
           0           0           0           0           0           1
           1           1           2           2           3           0
           0           0           0           0           1           1
           1           2           2           3           0           0
           0           0           0           1           1           1
           2           2           3           0           0           0
           0           0           1           1           1           2
           2           3           0           0           0           0
           0           1           1           1           2           2
           3           0           0           0           0           0
           1           1           1           2           2           3
           0           0           0           1           0           0
           0           1           0           0           0           1
           0           0           0           1           0           0
           0           1           0           0           0           1
Number of primitives per shell             I   N=          90
           6           2           1           1           1           4
           1           1           1           1           1           6
           2           1           1           1           4           1
           1           1           1           1           6           2
           1           1           1           4           1           1
           1           1           1           6           2           1
           1           1           4           1           1           1
           1           1           6           2           1           1
           1           4           1           1           1           1
           1           6           2           1           1           1
           4           1           1           1           1           1
           3           1           1           1           3           1
           1           1           3           1           1           1
           3           1           1           1           3           1
           1           1           3           1           1           1
Shell to atom map                          I   N=          90
           1           1           1           1           1           1
           1           1           1           1           1           2
           2           2           2           2           2           2
           2           2           2           2           3           3
           3           3           3           3           3           3
           3           3           3           4           4           4
           4           4           4           4           4           4
           4           4           5           5           5           5
           5           5           5           5           5           5
           5           6           6           6           6           6
           6           6           6           6           6           6
           7           7           7           7           8           8
           8           8           9           9           9           9
          10          10          10          10          11          11
          11          11          12          12          12          12
Primitive exponents                        R   N=         156
  1.35753497E+04  2.03523337E+03  4.63225624E+02  1.31200196E+02  4.28530159E+01
  1.55841858E+01  6.20671385E+00  2.57648965E+00  5.76963394E-01  2.29728314E-01
  9.51644400E-02  3.46972322E+01  7.95826228E+00  2.37808269E+00  8.14332082E-01
  2.88875473E-01  1.00568237E-01  1.09700000E+00  3.18000000E-01  7.61000000E-01
  1.35753497E+04  2.03523337E+03  4.63225624E+02  1.31200196E+02  4.28530159E+01
  1.55841858E+01  6.20671385E+00  2.57648965E+00  5.76963394E-01  2.29728314E-01
  9.51644400E-02  3.46972322E+01  7.95826228E+00  2.37808269E+00  8.14332082E-01
  2.88875473E-01  1.00568237E-01  1.09700000E+00  3.18000000E-01  7.61000000E-01
  1.35753497E+04  2.03523337E+03  4.63225624E+02  1.31200196E+02  4.28530159E+01
  1.55841858E+01  6.20671385E+00  2.57648965E+00  5.76963394E-01  2.29728314E-01
  9.51644400E-02  3.46972322E+01  7.95826228E+00  2.37808269E+00  8.14332082E-01
  2.88875473E-01  1.00568237E-01  1.09700000E+00  3.18000000E-01  7.61000000E-01
  1.35753497E+04  2.03523337E+03  4.63225624E+02  1.31200196E+02  4.28530159E+01
  1.55841858E+01  6.20671385E+00  2.57648965E+00  5.76963394E-01  2.29728314E-01
  9.51644400E-02  3.46972322E+01  7.95826228E+00  2.37808269E+00  8.14332082E-01
  2.88875473E-01  1.00568237E-01  1.09700000E+00  3.18000000E-01  7.61000000E-01
  1.35753497E+04  2.03523337E+03  4.63225624E+02  1.31200196E+02  4.28530159E+01
  1.55841858E+01  6.20671385E+00  2.57648965E+00  5.76963394E-01  2.29728314E-01
  9.51644400E-02  3.46972322E+01  7.95826228E+00  2.37808269E+00  8.14332082E-01
  2.88875473E-01  1.00568237E-01  1.09700000E+00  3.18000000E-01  7.61000000E-01
  1.35753497E+04  2.03523337E+03  4.63225624E+02  1.31200196E+02  4.28530159E+01
  1.55841858E+01  6.20671385E+00  2.57648965E+00  5.76963394E-01  2.29728314E-01
  9.51644400E-02  3.46972322E+01  7.95826228E+00  2.37808269E+00  8.14332082E-01
  2.88875473E-01  1.00568237E-01  1.09700000E+00  3.18000000E-01  7.61000000E-01
  3.40613410E+01  5.12357460E+00  1.16466260E+00  3.27230410E-01  1.03072410E-01
  8.00000000E-01  3.40613410E+01  5.12357460E+00  1.16466260E+00  3.27230410E-01
  1.03072410E-01  8.00000000E-01  3.40613410E+01  5.12357460E+00  1.16466260E+00
  3.27230410E-01  1.03072410E-01  8.00000000E-01  3.40613410E+01  5.12357460E+00
  1.16466260E+00  3.27230410E-01  1.03072410E-01  8.00000000E-01  3.40613410E+01
  5.12357460E+00  1.16466260E+00  3.27230410E-01  1.03072410E-01  8.00000000E-01
  3.40613410E+01  5.12357460E+00  1.16466260E+00  3.27230410E-01  1.03072410E-01
  8.00000000E-01
Contraction coefficients                   R   N=         156
  6.06455036E-04  4.69790889E-03  2.43324776E-02  9.73999683E-02  3.01955843E-01
  6.62336091E-01  6.55953085E-01  3.75856333E-01  1.00000000E+00  1.00000000E+00
  1.00000000E+00  1.13272200E-02  7.61696592E-02  3.01922522E-01  7.27850273E-01
  1.00000000E+00  1.00000000E+00  1.00000000E+00  1.00000000E+00  1.00000000E+00
  6.06455036E-04  4.69790889E-03  2.43324776E-02  9.73999683E-02  3.01955843E-01
  6.62336091E-01  6.55953085E-01  3.75856333E-01  1.00000000E+00  1.00000000E+00
  1.00000000E+00  1.13272200E-02  7.61696592E-02  3.01922522E-01  7.27850273E-01
  1.00000000E+00  1.00000000E+00  1.00000000E+00  1.00000000E+00  1.00000000E+00
  6.06455036E-04  4.69790889E-03  2.43324776E-02  9.73999683E-02  3.01955843E-01
  6.62336091E-01  6.55953085E-01  3.75856333E-01  1.00000000E+00  1.00000000E+00
  1.00000000E+00  1.13272200E-02  7.61696592E-02  3.01922522E-01  7.27850273E-01
  1.00000000E+00  1.00000000E+00  1.00000000E+00  1.00000000E+00  1.00000000E+00
  6.06455036E-04  4.69790889E-03  2.43324776E-02  9.73999683E-02  3.01955843E-01
  6.62336091E-01  6.55953085E-01  3.75856333E-01  1.00000000E+00  1.00000000E+00
  1.00000000E+00  1.13272200E-02  7.61696592E-02  3.01922522E-01  7.27850273E-01
  1.00000000E+00  1.00000000E+00  1.00000000E+00  1.00000000E+00  1.00000000E+00
  6.06455036E-04  4.69790889E-03  2.43324776E-02  9.73999683E-02  3.01955843E-01
  6.62336091E-01  6.55953085E-01  3.75856333E-01  1.00000000E+00  1.00000000E+00
  1.00000000E+00  1.13272200E-02  7.61696592E-02  3.01922522E-01  7.27850273E-01
  1.00000000E+00  1.00000000E+00  1.00000000E+00  1.00000000E+00  1.00000000E+00
  6.06455036E-04  4.69790889E-03  2.43324776E-02  9.73999683E-02  3.01955843E-01
  6.62336091E-01  6.55953085E-01  3.75856333E-01  1.00000000E+00  1.00000000E+00
  1.00000000E+00  1.13272200E-02  7.61696592E-02  3.01922522E-01  7.27850273E-01
  1.00000000E+00  1.00000000E+00  1.00000000E+00  1.00000000E+00  1.00000000E+00
  2.54393072E-02  1.90085949E-01  8.52441130E-01  1.00000000E+00  1.00000000E+00
  1.00000000E+00  2.54393072E-02  1.90085949E-01  8.52441130E-01  1.00000000E+00
  1.00000000E+00  1.00000000E+00  2.54393072E-02  1.90085949E-01  8.52441130E-01
  1.00000000E+00  1.00000000E+00  1.00000000E+00  2.54393072E-02  1.90085949E-01
  8.52441130E-01  1.00000000E+00  1.00000000E+00  1.00000000E+00  2.54393072E-02
  1.90085949E-01  8.52441130E-01  1.00000000E+00  1.00000000E+00  1.00000000E+00
  2.54393072E-02  1.90085949E-01  8.52441130E-01  1.00000000E+00  1.00000000E+00
  1.00000000E+00
Coordinates of each shell                  R   N=         270
  5.38571948E-02 -3.35256313E+00  4.75077150E-01  5.38571948E-02 -3.35256313E+00
  4.75077150E-01  5.38571948E-02 -3.35256313E+00  4.75077150E-01  5.38571948E-02
 -3.35256313E+00  4.75077150E-01  5.38571948E-02 -3.35256313E+00  4.75077150E-01
  5.38571948E-02 -3.35256313E+00  4.75077150E-01  5.38571948E-02 -3.35256313E+00
  4.75077150E-01  5.38571948E-02 -3.35256313E+00  4.75077150E-01  5.38571948E-02
 -3.35256313E+00  4.75077150E-01  5.38571948E-02 -3.35256313E+00  4.75077150E-01
  5.38571948E-02 -3.35256313E+00  4.75077150E-01  3.72276048E-02 -7.77811276E-01
 -8.40928129E-01  3.72276048E-02 -7.77811276E-01 -8.40928129E-01  3.72276048E-02
 -7.77811276E-01 -8.40928129E-01  3.72276048E-02 -7.77811276E-01 -8.40928129E-01
  3.72276048E-02 -7.77811276E-01 -8.40928129E-01  3.72276048E-02 -7.77811276E-01
 -8.40928129E-01  3.72276048E-02 -7.77811276E-01 -8.40928129E-01  3.72276048E-02
 -7.77811276E-01 -8.40928129E-01  3.72276048E-02 -7.77811276E-01 -8.40928129E-01
  3.72276048E-02 -7.77811276E-01 -8.40928129E-01  3.72276048E-02 -7.77811276E-01
 -8.40928129E-01 -2.30470999E+00  5.99988047E-01 -1.96909463E-01 -2.30470999E+00
  5.99988047E-01 -1.96909463E-01 -2.30470999E+00  5.99988047E-01 -1.96909463E-01
 -2.30470999E+00  5.99988047E-01 -1.96909463E-01 -2.30470999E+00  5.99988047E-01
 -1.96909463E-01 -2.30470999E+00  5.99988047E-01 -1.96909463E-01 -2.30470999E+00
  5.99988047E-01 -1.96909463E-01 -2.30470999E+00  5.99988047E-01 -1.96909463E-01
 -2.30470999E+00  5.99988047E-01 -1.96909463E-01 -2.30470999E+00  5.99988047E-01
 -1.96909463E-01 -2.30470999E+00  5.99988047E-01 -1.96909463E-01 -4.20445167E+00
  1.72928838E+00  3.27867484E-01 -4.20445167E+00  1.72928838E+00  3.27867484E-01
 -4.20445167E+00  1.72928838E+00  3.27867484E-01 -4.20445167E+00  1.72928838E+00
  3.27867484E-01 -4.20445167E+00  1.72928838E+00  3.27867484E-01 -4.20445167E+00
  1.72928838E+00  3.27867484E-01 -4.20445167E+00  1.72928838E+00  3.27867484E-01
 -4.20445167E+00  1.72928838E+00  3.27867484E-01 -4.20445167E+00  1.72928838E+00
  3.27867484E-01 -4.20445167E+00  1.72928838E+00  3.27867484E-01 -4.20445167E+00
  1.72928838E+00  3.27867484E-01  2.28033252E+00  6.36270789E-01 -1.97098436E-01
  2.28033252E+00  6.36270789E-01 -1.97098436E-01  2.28033252E+00  6.36270789E-01
 -1.97098436E-01  2.28033252E+00  6.36270789E-01 -1.97098436E-01  2.28033252E+00
  6.36270789E-01 -1.97098436E-01  2.28033252E+00  6.36270789E-01 -1.97098436E-01
  2.28033252E+00  6.36270789E-01 -1.97098436E-01  2.28033252E+00  6.36270789E-01
 -1.97098436E-01  2.28033252E+00  6.36270789E-01 -1.97098436E-01  2.28033252E+00
  6.36270789E-01 -1.97098436E-01  2.28033252E+00  6.36270789E-01 -1.97098436E-01
  4.12924057E+00  1.80185387E+00  3.33725635E-01  4.12924057E+00  1.80185387E+00
  3.33725635E-01  4.12924057E+00  1.80185387E+00  3.33725635E-01  4.12924057E+00
  1.80185387E+00  3.33725635E-01  4.12924057E+00  1.80185387E+00  3.33725635E-01
  4.12924057E+00  1.80185387E+00  3.33725635E-01  4.12924057E+00  1.80185387E+00
  3.33725635E-01  4.12924057E+00  1.80185387E+00  3.33725635E-01  4.12924057E+00
  1.80185387E+00  3.33725635E-01  4.12924057E+00  1.80185387E+00  3.33725635E-01
  4.12924057E+00  1.80185387E+00  3.33725635E-01  1.73665832E+00 -4.44406895E+00
 -4.47865093E-02  1.73665832E+00 -4.44406895E+00 -4.47865093E-02  1.73665832E+00
 -4.44406895E+00 -4.47865093E-02  1.73665832E+00 -4.44406895E+00 -4.47865093E-02
 -1.61307023E+00 -4.46542285E+00 -5.02667151E-02 -1.61307023E+00 -4.46542285E+00
 -5.02667151E-02 -1.61307023E+00 -4.46542285E+00 -5.02667151E-02 -1.61307023E+00
 -4.46542285E+00 -5.02667151E-02  4.87549342E-02 -3.15357497E+00  2.53922500E+00
  4.87549342E-02 -3.15357497E+00  2.53922500E+00  4.87549342E-02 -3.15357497E+00
  2.53922500E+00  4.87549342E-02 -3.15357497E+00  2.53922500E+00  3.09915086E-02
 -1.12022965E+00 -2.88655667E+00  3.09915086E-02 -1.12022965E+00 -2.88655667E+00
  3.09915086E-02 -1.12022965E+00 -2.88655667E+00  3.09915086E-02 -1.12022965E+00
 -2.88655667E+00 -5.87893800E+00  2.74199262E+00  8.00487990E-01 -5.87893800E+00
  2.74199262E+00  8.00487990E-01 -5.87893800E+00  2.74199262E+00  8.00487990E-01
 -5.87893800E+00  2.74199262E+00  8.00487990E-01  5.77878251E+00  2.85291954E+00
  8.12582237E-01  5.77878251E+00  2.85291954E+00  8.12582237E-01  5.77878251E+00
  2.85291954E+00  8.12582237E-01  5.77878251E+00  2.85291954E+00  8.12582237E-01
Constraint Structure                       R   N=          36
  5.38571948E-02 -3.35256313E+00  4.75077150E-01  3.72276048E-02 -7.77811276E-01
 -8.40928129E-01 -2.30470999E+00  5.99988047E-01 -1.96909463E-01 -4.20445167E+00
  1.72928838E+00  3.27867484E-01  2.28033252E+00  6.36270789E-01 -1.97098436E-01
  4.12924057E+00  1.80185387E+00  3.33725635E-01  1.73665832E+00 -4.44406895E+00
 -4.47865093E-02 -1.61307023E+00 -4.46542285E+00 -5.02667151E-02  4.87549342E-02
 -3.15357497E+00  2.53922500E+00  3.09915086E-02 -1.12022965E+00 -2.88655667E+00
 -5.87893800E+00  2.74199262E+00  8.00487990E-01  5.77878251E+00  2.85291954E+00
  8.12582237E-01
Num ILSW                                   I              100
ILSW                                       I   N=         100
           0           1           0           0           2           0
           0           0           0           0        1009          -1
           5           0           0           1           0           0
           0           0           1           0           0           0
           1           1           0           0           0           0
           0           0      100000           0          -1           0
           0           0           0           0           0           0
           0           0           0           1           0           0
           0           0           1           0           0           0
           0           0           4          41           0           0
           0           0           0           0           0           0
           0           0           0           0           0           0
           0           0           0           0           0           0
           0           0           0           0           0           0
           0           0           0           0           0           0
           0           0           0           0           0           0
           0           0           0           0
Num RLSW                                   I               41
RLSW                                       R   N=          41
  1.00000000E+00  1.00000000E+00  1.00000000E+00  1.00000000E+00  0.00000000E+00
  0.00000000E+00  0.00000000E+00  1.00000000E+00  0.00000000E+00  0.00000000E+00
  0.00000000E+00  0.00000000E+00  1.00000000E+00  0.00000000E+00  0.00000000E+00
  0.00000000E+00  0.00000000E+00  1.00000000E+00  0.00000000E+00  0.00000000E+00
  0.00000000E+00  0.00000000E+00  1.00000000E+00  0.00000000E+00  0.00000000E+00
  0.00000000E+00  0.00000000E+00  1.00000000E+00  0.00000000E+00  0.00000000E+00
  0.00000000E+00  0.00000000E+00  1.00000000E+00  0.00000000E+00  0.00000000E+00
  0.00000000E+00  0.00000000E+00  0.00000000E+00  1.00000000E+00  1.00000000E+00
  0.00000000E+00
ECP-MxAtEC                                 I           250000
ECP-MaxLECP                                I               10
ECP-MaxAtL                                 I          2250000
ECP-MxTECP                                 I         11250000
ECP-LenNCZ                                 I                0
ECP-KFirst                                 I   N=         120
           0           0           0           0           0           0
           0           0           0           0           0           0
           0           0           0           0           0           0
           0           0           0           0           0           0
           0           0           0           0           0           0
           0           0           0           0           0           0
           0           0           0           0           0           0
           0           0           0           0           0           0
           0           0           0           0           0           0
           0           0           0           0           0           0
           0           0           0           0           0           0
           0           0           0           0           0           0
           0           0           0           0           0           0
           0           0           0           0           0           0
           0           0           0           0           0           0
           0           0           0           0           0           0
           0           0           0           0           0           0
           0           0           0           0           0           0
           0           0           0           0           0           0
           0           0           0           0           0           0
ECP-KLast                                  I   N=         120
           0           0           0           0           0           0
           0           0           0           0           0           0
           0           0           0           0           0           0
           0           0           0           0           0           0
           0           0           0           0           0           0
           0           0           0           0           0           0
           0           0           0           0           0           0
           0           0           0           0           0           0
           0           0           0           0           0           0
           0           0           0           0           0           0
           0           0           0           0           0           0
           0           0           0           0           0           0
           0           0           0           0           0           0
           0           0           0           0           0           0
           0           0           0           0           0           0
           0           0           0           0           0           0
           0           0           0           0           0           0
           0           0           0           0           0           0
           0           0           0           0           0           0
           0           0           0           0           0           0
ECP-LMax                                   I   N=          12
           0           0           0           0           0           0
           0           0           0           0           0           0
ECP-LPSkip                                 I   N=          12
           1           1           1           1           1           1
           1           1           1           1           1           1
ECP-RNFroz                                 R   N=          12
  0.00000000E+00  0.00000000E+00  0.00000000E+00  0.00000000E+00  0.00000000E+00
  0.00000000E+00  0.00000000E+00  0.00000000E+00  0.00000000E+00  0.00000000E+00
  0.00000000E+00  0.00000000E+00
ECP-NLP                                    I                0
ECP-CLP1                                   R      0.000000000000000E+00
ECP-CLP2                                   R      0.000000000000000E+00
ECP-ZLP                                    R      0.000000000000000E+00
MxBond                                     I                4
NBond                                      I   N=          12
           4           4           2           2           2           2
           1           1           1           1           1           1
IBond                                      I   N=          48
           2           7           8           9           1           3
           5          10           2           4           0           0
           3          11           0           0           2           6
           0           0           5          12           0           0
           1           0           0           0           1           0
           0           0           1           0           0           0
           2           0           0           0           4           0
           0           0           6           0           0           0
RBond                                      R   N=          48
  1.00000000E+00  1.00000000E+00  1.00000000E+00  1.00000000E+00  1.00000000E+00
  1.00000000E+00  1.00000000E+00  1.00000000E+00  1.00000000E+00  3.00000000E+00
  0.00000000E+00  0.00000000E+00  3.00000000E+00  1.00000000E+00  0.00000000E+00
  0.00000000E+00  1.00000000E+00  3.00000000E+00  0.00000000E+00  0.00000000E+00
  3.00000000E+00  1.00000000E+00  0.00000000E+00  0.00000000E+00  1.00000000E+00
  0.00000000E+00  0.00000000E+00  0.00000000E+00  1.00000000E+00  0.00000000E+00
  0.00000000E+00  0.00000000E+00  1.00000000E+00  0.00000000E+00  0.00000000E+00
  0.00000000E+00  1.00000000E+00  0.00000000E+00  0.00000000E+00  0.00000000E+00
  1.00000000E+00  0.00000000E+00  0.00000000E+00  0.00000000E+00  1.00000000E+00
  0.00000000E+00  0.00000000E+00  0.00000000E+00
Virial Ratio                               R      2.004773285131634E+00
SCF Energy                                 R     -2.318724346771064E+02
Total Energy                               R     -2.318724346771064E+02
RMS Density                                R      5.738049050772256E-09
External E-field                           R   N=          35
  0.00000000E+00  0.00000000E+00  0.00000000E+00  0.00000000E+00  0.00000000E+00
  0.00000000E+00  0.00000000E+00  0.00000000E+00  0.00000000E+00  0.00000000E+00
  0.00000000E+00  0.00000000E+00  0.00000000E+00  0.00000000E+00  0.00000000E+00
  0.00000000E+00  0.00000000E+00  0.00000000E+00  0.00000000E+00  0.00000000E+00
  0.00000000E+00  0.00000000E+00  0.00000000E+00  0.00000000E+00  0.00000000E+00
  0.00000000E+00  0.00000000E+00  0.00000000E+00  0.00000000E+00  0.00000000E+00
  0.00000000E+00  0.00000000E+00  0.00000000E+00  0.00000000E+00  0.00000000E+00
IOpCl                                      I                0
IROHF                                      I                0
Alpha Orbital Energies                     R   N=         252
 -9.94841984E+00 -9.89705552E+00 -9.89497903E+00 -9.89240331E+00 -9.88407383E+00
 -9.88123334E+00 -7.68214012E-01 -6.77562625E-01 -6.62052345E-01 -5.97984609E-01
 -5.05435350E-01 -4.75128467E-01 -4.43484148E-01 -4.41727813E-01 -3.87849946E-01
 -3.47572229E-01 -3.38693568E-01 -2.58898910E-01 -2.56669214E-01 -2.44115703E-01
 -2.41424187E-01 -1.57104842E-02 -1.02923662E-02  7.39632438E-03  2.56124897E-02
  2.82188996E-02  5.54060767E-02  5.64371854E-02  5.90485940E-02  8.76467407E-02
  9.00635116E-02  1.08041248E-01  1.20294902E-01  1.39296515E-01  1.62572695E-01
  1.74997600E-01  1.82985130E-01  1.85342614E-01  1.97952505E-01  2.03705251E-01
  2.11249212E-01  2.58323115E-01  2.65704628E-01  2.97955580E-01  3.00382904E-01
  3.34971513E-01  3.39319436E-01  3.44755583E-01  3.45140042E-01  3.53238315E-01
  3.57583628E-01  3.78130054E-01  3.88678048E-01  3.94672668E-01  4.02453841E-01
  4.09360100E-01  4.27617018E-01  4.80400981E-01  4.92981842E-01  5.03077673E-01
  5.17362923E-01  5.52597905E-01  5.80398285E-01  5.84058114E-01  5.90882782E-01
  6.49660746E-01  6.55326143E-01  6.74876811E-01  6.93267165E-01  7.43956994E-01
  7.69196399E-01  7.79001514E-01  7.96029421E-01  8.32233810E-01  8.49697756E-01
  8.75462689E-01  8.85089276E-01  8.99021514E-01  9.11562017E-01  9.17781730E-01
  9.33977485E-01  9.35221583E-01  9.82577459E-01  9.87847296E-01  1.01422655E+00
  1.05862774E+00  1.06948103E+00  1.08086956E+00  1.08228405E+00  1.09491249E+00
  1.11282448E+00  1.12558916E+00  1.13655199E+00  1.16128807E+00  1.17435049E+00
  1.21002919E+00  1.23406264E+00  1.23570570E+00  1.28347942E+00  1.29550524E+00