qm7_0857                                                                
SP        RPBEPBE                                                     def2TZVP            
Number of atoms                            I               12
Info1-9                                    I   N=           9
          21          20           0           0           0         110
           1          18         902
Charge                                     I                0
Multiplicity                               I                1
Number of electrons                        I               44
Number of alpha electrons                  I               22
Number of beta electrons                   I               22
Number of basis functions                  I              252
Number of independent functions            I              252
Number of point charges in /Mol/           I                0
Number of translation vectors              I                0
Atomic numbers                             I   N=          12
           8           6           6           6           6           6
           1           1           1           1           1           1
Nuclear charges                            R   N=          12
  8.00000000E+00  6.00000000E+00  6.00000000E+00  6.00000000E+00  6.00000000E+00
  6.00000000E+00  1.00000000E+00  1.00000000E+00  1.00000000E+00  1.00000000E+00
  1.00000000E+00  1.00000000E+00
Current cartesian coordinates              R   N=          36
 -3.75847631E+00  4.70541807E-02 -3.19363716E-02 -1.45225453E+00  3.15584264E-02
  2.26767136E-03  2.06736039E-01  2.33041027E+00  5.48020579E-02  2.85405338E+00
  1.19997609E+00 -4.98887699E-02  2.45513219E+00 -1.59757447E+00  6.04712363E-03
  3.62827418E-02 -2.31170198E+00  2.34326040E-02 -1.00911375E-01  3.37731854E+00
  1.80941277E+00 -1.73476859E-01  3.53340992E+00 -1.58018899E+00  3.99469207E+00
  1.82131805E+00  1.56091379E+00  3.83330946E+00  1.75857914E+00 -1.78635811E+00
  4.01680187E+00 -2.91924893E+00  1.51178091E-02 -7.66283947E-01 -4.17875140E+00
  4.98887699E-02
Force Field                                I                0
Int Atom Types                             I   N=          12
           0           0           0           0           0           0
           0           0           0           0           0           0
MM charges                                 R   N=          12
  0.00000000E+00  0.00000000E+00  0.00000000E+00  0.00000000E+00  0.00000000E+00
  0.00000000E+00  0.00000000E+00  0.00000000E+00  0.00000000E+00  0.00000000E+00
  0.00000000E+00  0.00000000E+00
Integer atomic weights                     I   N=          12
          16          12          12          12          12          12
           1           1           1           1           1           1
Real atomic weights                        R   N=          12
  1.59949146E+01  1.20000000E+01  1.20000000E+01  1.20000000E+01  1.20000000E+01
  1.20000000E+01  1.00782504E+00  1.00782504E+00  1.00782504E+00  1.00782504E+00
  1.00782504E+00  1.00782504E+00
Atom fragment info                         I   N=          12
           0           0           0           0           0           0
           0           0           0           0           0           0
Atom residue num                           I   N=          12
           0           0           0           0           0           0
           0           0           0           0           0           0
Nuclear spins                              I   N=          12
           0           0           0           0           0           0
           1           1           1           1           1           1
Nuclear ZEff                               R   N=          12
 -5.60000000E+00 -3.60000000E+00 -3.60000000E+00 -3.60000000E+00 -3.60000000E+00
 -3.60000000E+00 -1.00000000E+00 -1.00000000E+00 -1.00000000E+00 -1.00000000E+00
 -1.00000000E+00 -1.00000000E+00
Nuclear ZNuc                               R   N=          12
  8.00000000E+00  6.00000000E+00  6.00000000E+00  6.00000000E+00  6.00000000E+00
  6.00000000E+00  1.00000000E+00  1.00000000E+00  1.00000000E+00  1.00000000E+00
  1.00000000E+00  1.00000000E+00
Nuclear QMom                               R   N=          12
  0.00000000E+00  0.00000000E+00  0.00000000E+00  0.00000000E+00  0.00000000E+00
  0.00000000E+00  0.00000000E+00  0.00000000E+00  0.00000000E+00  0.00000000E+00
  0.00000000E+00  0.00000000E+00
Nuclear GFac                               R   N=          12
  0.00000000E+00  0.00000000E+00  0.00000000E+00  0.00000000E+00  0.00000000E+00
  0.00000000E+00  2.79284600E+00  2.79284600E+00  2.79284600E+00  2.79284600E+00
  2.79284600E+00  2.79284600E+00
MicOpt                                     I   N=          12
          -1          -1          -1          -1          -1          -1
          -1          -1          -1          -1          -1          -1
Number of contracted shells                I               90
Number of primitive shells                 I              156
Pure/Cartesian d shells                    I                1
Pure/Cartesian f shells                    I                1
Highest angular momentum                   I                3
Largest degree of contraction              I                6
Shell types                                I   N=          90
           0           0           0           0           0           1
           1           1           2           2           3           0
           0           0           0           0           1           1
           1           2           2           3           0           0
           0           0           0           1           1           1
           2           2           3           0           0           0
           0           0           1           1           1           2
           2           3           0           0           0           0
           0           1           1           1           2           2
           3           0           0           0           0           0
           1           1           1           2           2           3
           0           0           0           1           0           0
           0           1           0           0           0           1
           0           0           0           1           0           0
           0           1           0           0           0           1
Number of primitives per shell             I   N=          90
           6           2           1           1           1           4
           1           1           1           1           1           6
           2           1           1           1           4           1
           1           1           1           1           6           2
           1           1           1           4           1           1
           1           1           1           6           2           1
           1           1           4           1           1           1
           1           1           6           2           1           1
           1           4           1           1           1           1
           1           6           2           1           1           1
           4           1           1           1           1           1
           3           1           1           1           3           1
           1           1           3           1           1           1
           3           1           1           1           3           1
           1           1           3           1           1           1
Shell to atom map                          I   N=          90
           1           1           1           1           1           1
           1           1           1           1           1           2
           2           2           2           2           2           2
           2           2           2           2           3           3
           3           3           3           3           3           3
           3           3           3           4           4           4
           4           4           4           4           4           4
           4           4           5           5           5           5
           5           5           5           5           5           5
           5           6           6           6           6           6
           6           6           6           6           6           6
           7           7           7           7           8           8
           8           8           9           9           9           9
          10          10          10          10          11          11
          11          11          12          12          12          12
Primitive exponents                        R   N=         156
  2.70323826E+04  4.05238714E+03  9.22327227E+02  2.61240710E+02  8.53546414E+01
  3.10350352E+01  1.22608607E+01  4.99870760E+00  1.17031082E+00  4.64747410E-01
  1.85045364E-01  6.32749548E+01  1.46270494E+01  4.45012235E+00  1.52757996E+00
  5.29351179E-01  1.74784213E-01  2.31400000E+00  6.45000000E-01  1.42800000E+00
  1.35753497E+04  2.03523337E+03  4.63225624E+02  1.31200196E+02  4.28530159E+01
  1.55841858E+01  6.20671385E+00  2.57648965E+00  5.76963394E-01  2.29728314E-01
  9.51644400E-02  3.46972322E+01  7.95826228E+00  2.37808269E+00  8.14332082E-01
  2.88875473E-01  1.00568237E-01  1.09700000E+00  3.18000000E-01  7.61000000E-01
  1.35753497E+04  2.03523337E+03  4.63225624E+02  1.31200196E+02  4.28530159E+01
  1.55841858E+01  6.20671385E+00  2.57648965E+00  5.76963394E-01  2.29728314E-01
  9.51644400E-02  3.46972322E+01  7.95826228E+00  2.37808269E+00  8.14332082E-01
  2.88875473E-01  1.00568237E-01  1.09700000E+00  3.18000000E-01  7.61000000E-01
  1.35753497E+04  2.03523337E+03  4.63225624E+02  1.31200196E+02  4.28530159E+01
  1.55841858E+01  6.20671385E+00  2.57648965E+00  5.76963394E-01  2.29728314E-01
  9.51644400E-02  3.46972322E+01  7.95826228E+00  2.37808269E+00  8.14332082E-01
  2.88875473E-01  1.00568237E-01  1.09700000E+00  3.18000000E-01  7.61000000E-01
  1.35753497E+04  2.03523337E+03  4.63225624E+02  1.31200196E+02  4.28530159E+01
  1.55841858E+01  6.20671385E+00  2.57648965E+00  5.76963394E-01  2.29728314E-01
  9.51644400E-02  3.46972322E+01  7.95826228E+00  2.37808269E+00  8.14332082E-01
  2.88875473E-01  1.00568237E-01  1.09700000E+00  3.18000000E-01  7.61000000E-01
  1.35753497E+04  2.03523337E+03  4.63225624E+02  1.31200196E+02  4.28530159E+01
  1.55841858E+01  6.20671385E+00  2.57648965E+00  5.76963394E-01  2.29728314E-01
  9.51644400E-02  3.46972322E+01  7.95826228E+00  2.37808269E+00  8.14332082E-01
  2.88875473E-01  1.00568237E-01  1.09700000E+00  3.18000000E-01  7.61000000E-01
  3.40613410E+01  5.12357460E+00  1.16466260E+00  3.27230410E-01  1.03072410E-01
  8.00000000E-01  3.40613410E+01  5.12357460E+00  1.16466260E+00  3.27230410E-01
  1.03072410E-01  8.00000000E-01  3.40613410E+01  5.12357460E+00  1.16466260E+00
  3.27230410E-01  1.03072410E-01  8.00000000E-01  3.40613410E+01  5.12357460E+00
  1.16466260E+00  3.27230410E-01  1.03072410E-01  8.00000000E-01  3.40613410E+01
  5.12357460E+00  1.16466260E+00  3.27230410E-01  1.03072410E-01  8.00000000E-01
  3.40613410E+01  5.12357460E+00  1.16466260E+00  3.27230410E-01  1.03072410E-01
  8.00000000E-01
Contraction coefficients                   R   N=         156
  5.72273352E-04  4.43532335E-03  2.30201077E-02  9.28224907E-02  2.93785000E-01
  6.74016045E-01  6.38399370E-01  3.95345871E-01  1.00000000E+00  1.00000000E+00
  1.00000000E+00  1.20183322E-02  8.30054218E-02  3.19917439E-01  7.07155429E-01
  1.00000000E+00  1.00000000E+00  1.00000000E+00  1.00000000E+00  1.00000000E+00
  6.06455036E-04  4.69790889E-03  2.43324776E-02  9.73999683E-02  3.01955843E-01
  6.62336091E-01  6.55953085E-01  3.75856333E-01  1.00000000E+00  1.00000000E+00
  1.00000000E+00  1.13272200E-02  7.61696592E-02  3.01922522E-01  7.27850273E-01
  1.00000000E+00  1.00000000E+00  1.00000000E+00  1.00000000E+00  1.00000000E+00
  6.06455036E-04  4.69790889E-03  2.43324776E-02  9.73999683E-02  3.01955843E-01
  6.62336091E-01  6.55953085E-01  3.75856333E-01  1.00000000E+00  1.00000000E+00
  1.00000000E+00  1.13272200E-02  7.61696592E-02  3.01922522E-01  7.27850273E-01
  1.00000000E+00  1.00000000E+00  1.00000000E+00  1.00000000E+00  1.00000000E+00
  6.06455036E-04  4.69790889E-03  2.43324776E-02  9.73999683E-02  3.01955843E-01
  6.62336091E-01  6.55953085E-01  3.75856333E-01  1.00000000E+00  1.00000000E+00
  1.00000000E+00  1.13272200E-02  7.61696592E-02  3.01922522E-01  7.27850273E-01
  1.00000000E+00  1.00000000E+00  1.00000000E+00  1.00000000E+00  1.00000000E+00
  6.06455036E-04  4.69790889E-03  2.43324776E-02  9.73999683E-02  3.01955843E-01
  6.62336091E-01  6.55953085E-01  3.75856333E-01  1.00000000E+00  1.00000000E+00
  1.00000000E+00  1.13272200E-02  7.61696592E-02  3.01922522E-01  7.27850273E-01
  1.00000000E+00  1.00000000E+00  1.00000000E+00  1.00000000E+00  1.00000000E+00
  6.06455036E-04  4.69790889E-03  2.43324776E-02  9.73999683E-02  3.01955843E-01
  6.62336091E-01  6.55953085E-01  3.75856333E-01  1.00000000E+00  1.00000000E+00
  1.00000000E+00  1.13272200E-02  7.61696592E-02  3.01922522E-01  7.27850273E-01
  1.00000000E+00  1.00000000E+00  1.00000000E+00  1.00000000E+00  1.00000000E+00
  2.54393072E-02  1.90085949E-01  8.52441130E-01  1.00000000E+00  1.00000000E+00
  1.00000000E+00  2.54393072E-02  1.90085949E-01  8.52441130E-01  1.00000000E+00
  1.00000000E+00  1.00000000E+00  2.54393072E-02  1.90085949E-01  8.52441130E-01
  1.00000000E+00  1.00000000E+00  1.00000000E+00  2.54393072E-02  1.90085949E-01
  8.52441130E-01  1.00000000E+00  1.00000000E+00  1.00000000E+00  2.54393072E-02
  1.90085949E-01  8.52441130E-01  1.00000000E+00  1.00000000E+00  1.00000000E+00
  2.54393072E-02  1.90085949E-01  8.52441130E-01  1.00000000E+00  1.00000000E+00
  1.00000000E+00
Coordinates of each shell                  R   N=         270
 -3.75847631E+00  4.70541807E-02 -3.19363716E-02 -3.75847631E+00  4.70541807E-02
 -3.19363716E-02 -3.75847631E+00  4.70541807E-02 -3.19363716E-02 -3.75847631E+00
  4.70541807E-02 -3.19363716E-02 -3.75847631E+00  4.70541807E-02 -3.19363716E-02
 -3.75847631E+00  4.70541807E-02 -3.19363716E-02 -3.75847631E+00  4.70541807E-02
 -3.19363716E-02 -3.75847631E+00  4.70541807E-02 -3.19363716E-02 -3.75847631E+00
  4.70541807E-02 -3.19363716E-02 -3.75847631E+00  4.70541807E-02 -3.19363716E-02
 -3.75847631E+00  4.70541807E-02 -3.19363716E-02 -1.45225453E+00  3.15584264E-02
  2.26767136E-03 -1.45225453E+00  3.15584264E-02  2.26767136E-03 -1.45225453E+00
  3.15584264E-02  2.26767136E-03 -1.45225453E+00  3.15584264E-02  2.26767136E-03
 -1.45225453E+00  3.15584264E-02  2.26767136E-03 -1.45225453E+00  3.15584264E-02
  2.26767136E-03 -1.45225453E+00  3.15584264E-02  2.26767136E-03 -1.45225453E+00
  3.15584264E-02  2.26767136E-03 -1.45225453E+00  3.15584264E-02  2.26767136E-03
 -1.45225453E+00  3.15584264E-02  2.26767136E-03 -1.45225453E+00  3.15584264E-02
  2.26767136E-03  2.06736039E-01  2.33041027E+00  5.48020579E-02  2.06736039E-01
  2.33041027E+00  5.48020579E-02  2.06736039E-01  2.33041027E+00  5.48020579E-02
  2.06736039E-01  2.33041027E+00  5.48020579E-02  2.06736039E-01  2.33041027E+00
  5.48020579E-02  2.06736039E-01  2.33041027E+00  5.48020579E-02  2.06736039E-01
  2.33041027E+00  5.48020579E-02  2.06736039E-01  2.33041027E+00  5.48020579E-02
  2.06736039E-01  2.33041027E+00  5.48020579E-02  2.06736039E-01  2.33041027E+00
  5.48020579E-02  2.06736039E-01  2.33041027E+00  5.48020579E-02  2.85405338E+00
  1.19997609E+00 -4.98887699E-02  2.85405338E+00  1.19997609E+00 -4.98887699E-02
  2.85405338E+00  1.19997609E+00 -4.98887699E-02  2.85405338E+00  1.19997609E+00
 -4.98887699E-02  2.85405338E+00  1.19997609E+00 -4.98887699E-02  2.85405338E+00
  1.19997609E+00 -4.98887699E-02  2.85405338E+00  1.19997609E+00 -4.98887699E-02
  2.85405338E+00  1.19997609E+00 -4.98887699E-02  2.85405338E+00  1.19997609E+00
 -4.98887699E-02  2.85405338E+00  1.19997609E+00 -4.98887699E-02  2.85405338E+00
  1.19997609E+00 -4.98887699E-02  2.45513219E+00 -1.59757447E+00  6.04712363E-03
  2.45513219E+00 -1.59757447E+00  6.04712363E-03  2.45513219E+00 -1.59757447E+00
  6.04712363E-03  2.45513219E+00 -1.59757447E+00  6.04712363E-03  2.45513219E+00
 -1.59757447E+00  6.04712363E-03  2.45513219E+00 -1.59757447E+00  6.04712363E-03
  2.45513219E+00 -1.59757447E+00  6.04712363E-03  2.45513219E+00 -1.59757447E+00
  6.04712363E-03  2.45513219E+00 -1.59757447E+00  6.04712363E-03  2.45513219E+00
 -1.59757447E+00  6.04712363E-03  2.45513219E+00 -1.59757447E+00  6.04712363E-03
  3.62827418E-02 -2.31170198E+00  2.34326040E-02  3.62827418E-02 -2.31170198E+00
  2.34326040E-02  3.62827418E-02 -2.31170198E+00  2.34326040E-02  3.62827418E-02
 -2.31170198E+00  2.34326040E-02  3.62827418E-02 -2.31170198E+00  2.34326040E-02
  3.62827418E-02 -2.31170198E+00  2.34326040E-02  3.62827418E-02 -2.31170198E+00
  2.34326040E-02  3.62827418E-02 -2.31170198E+00  2.34326040E-02  3.62827418E-02
 -2.31170198E+00  2.34326040E-02  3.62827418E-02 -2.31170198E+00  2.34326040E-02
  3.62827418E-02 -2.31170198E+00  2.34326040E-02 -1.00911375E-01  3.37731854E+00
  1.80941277E+00 -1.00911375E-01  3.37731854E+00  1.80941277E+00 -1.00911375E-01
  3.37731854E+00  1.80941277E+00 -1.00911375E-01  3.37731854E+00  1.80941277E+00
 -1.73476859E-01  3.53340992E+00 -1.58018899E+00 -1.73476859E-01  3.53340992E+00
 -1.58018899E+00 -1.73476859E-01  3.53340992E+00 -1.58018899E+00 -1.73476859E-01
  3.53340992E+00 -1.58018899E+00  3.99469207E+00  1.82131805E+00  1.56091379E+00
  3.99469207E+00  1.82131805E+00  1.56091379E+00  3.99469207E+00  1.82131805E+00
  1.56091379E+00  3.99469207E+00  1.82131805E+00  1.56091379E+00  3.83330946E+00
  1.75857914E+00 -1.78635811E+00  3.83330946E+00  1.75857914E+00 -1.78635811E+00
  3.83330946E+00  1.75857914E+00 -1.78635811E+00  3.83330946E+00  1.75857914E+00
 -1.78635811E+00  4.01680187E+00 -2.91924893E+00  1.51178091E-02  4.01680187E+00
 -2.91924893E+00  1.51178091E-02  4.01680187E+00 -2.91924893E+00  1.51178091E-02
  4.01680187E+00 -2.91924893E+00  1.51178091E-02 -7.66283947E-01 -4.17875140E+00
  4.98887699E-02 -7.66283947E-01 -4.17875140E+00  4.98887699E-02 -7.66283947E-01
 -4.17875140E+00  4.98887699E-02 -7.66283947E-01 -4.17875140E+00  4.98887699E-02
Constraint Structure                       R   N=          36
 -3.75847631E+00  4.70541807E-02 -3.19363716E-02 -1.45225453E+00  3.15584264E-02
  2.26767136E-03  2.06736039E-01  2.33041027E+00  5.48020579E-02  2.85405338E+00
  1.19997609E+00 -4.98887699E-02  2.45513219E+00 -1.59757447E+00  6.04712363E-03
  3.62827418E-02 -2.31170198E+00  2.34326040E-02 -1.00911375E-01  3.37731854E+00
  1.80941277E+00 -1.73476859E-01  3.53340992E+00 -1.58018899E+00  3.99469207E+00
  1.82131805E+00  1.56091379E+00  3.83330946E+00  1.75857914E+00 -1.78635811E+00
  4.01680187E+00 -2.91924893E+00  1.51178091E-02 -7.66283947E-01 -4.17875140E+00
  4.98887699E-02
Num ILSW                                   I              100
ILSW                                       I   N=         100
           0           1           0           0           2           0
           0           0           0           0        1009          -1
           5           0           0           1           0           0
           0           0           1           0           0           0
           1           1           0           0           0           0
           0           0      100000           0          -1           0
           0           0           0           0           0           0
           0           0           0           1           0           0
           0           0           1           0           0           0
           0           0           4          41           0           0
           0           0           0           0           0           0
           0           0           0           0           0           0
           0           0           0           0           0           0
           0           0           0           0           0           0
           0           0           0           0           0           0
           0           0           0           0           0           0
           0           0           0           0
Num RLSW                                   I               41
RLSW                                       R   N=          41
  1.00000000E+00  1.00000000E+00  1.00000000E+00  1.00000000E+00  0.00000000E+00
  0.00000000E+00  0.00000000E+00  1.00000000E+00  0.00000000E+00  0.00000000E+00
  0.00000000E+00  0.00000000E+00  1.00000000E+00  0.00000000E+00  0.00000000E+00
  0.00000000E+00  0.00000000E+00  1.00000000E+00  0.00000000E+00  0.00000000E+00
  0.00000000E+00  0.00000000E+00  1.00000000E+00  0.00000000E+00  0.00000000E+00
  0.00000000E+00  0.00000000E+00  1.00000000E+00  0.00000000E+00  0.00000000E+00
  0.00000000E+00  0.00000000E+00  1.00000000E+00  0.00000000E+00  0.00000000E+00
  0.00000000E+00  0.00000000E+00  0.00000000E+00  1.00000000E+00  1.00000000E+00
  0.00000000E+00
ECP-MxAtEC                                 I           250000
ECP-MaxLECP                                I               10
ECP-MaxAtL                                 I          2250000
ECP-MxTECP                                 I         11250000
ECP-LenNCZ                                 I                0
ECP-KFirst                                 I   N=         120
           0           0           0           0           0           0
           0           0           0           0           0           0
           0           0           0           0           0           0
           0           0           0           0           0           0
           0           0           0           0           0           0
           0           0           0           0           0           0
           0           0           0           0           0           0
           0           0           0           0           0           0
           0           0           0           0           0           0
           0           0           0           0           0           0
           0           0           0           0           0           0
           0           0           0           0           0           0
           0           0           0           0           0           0
           0           0           0           0           0           0
           0           0           0           0           0           0
           0           0           0           0           0           0
           0           0           0           0           0           0
           0           0           0           0           0           0
           0           0           0           0           0           0
           0           0           0           0           0           0
ECP-KLast                                  I   N=         120
           0           0           0           0           0           0
           0           0           0           0           0           0
           0           0           0           0           0           0
           0           0           0           0           0           0
           0           0           0           0           0           0
           0           0           0           0           0           0
           0           0           0           0           0           0
           0           0           0           0           0           0
           0           0           0           0           0           0
           0           0           0           0           0           0
           0           0           0           0           0           0
           0           0           0           0           0           0
           0           0           0           0           0           0
           0           0           0           0           0           0
           0           0           0           0           0           0
           0           0           0           0           0           0
           0           0           0           0           0           0
           0           0           0           0           0           0
           0           0           0           0           0           0
           0           0           0           0           0           0
ECP-LMax                                   I   N=          12
           0           0           0           0           0           0
           0           0           0           0           0           0
ECP-LPSkip                                 I   N=          12
           1           1           1           1           1           1
           1           1           1           1           1           1
ECP-RNFroz                                 R   N=          12
  0.00000000E+00  0.00000000E+00  0.00000000E+00  0.00000000E+00  0.00000000E+00
  0.00000000E+00  0.00000000E+00  0.00000000E+00  0.00000000E+00  0.00000000E+00
  0.00000000E+00  0.00000000E+00
ECP-NLP                                    I                0
ECP-CLP1                                   R      0.000000000000000E+00
ECP-CLP2                                   R      0.000000000000000E+00
ECP-ZLP                                    R      0.000000000000000E+00
MxBond                                     I                4
NBond                                      I   N=          12
           1           3           4           4           3           3
           1           1           1           1           1           1
IBond                                      I   N=          48
           2           0           0           0           1           3
           6           0           2           4           7           8
           3           5           9          10           4           6
          11           0           2           5          12           0
           3           0           0           0           3           0
           0           0           4           0           0           0
           4           0           0           0           5           0
           0           0           6           0           0           0
RBond                                      R   N=          48
  2.00000000E+00  0.00000000E+00  0.00000000E+00  0.00000000E+00  2.00000000E+00
  1.00000000E+00  1.00000000E+00  0.00000000E+00  1.00000000E+00  1.00000000E+00
  1.00000000E+00  1.00000000E+00  1.00000000E+00  1.00000000E+00  1.00000000E+00
  1.00000000E+00  1.00000000E+00  2.00000000E+00  1.00000000E+00  0.00000000E+00
  1.00000000E+00  2.00000000E+00  1.00000000E+00  0.00000000E+00  1.00000000E+00
  0.00000000E+00  0.00000000E+00  0.00000000E+00  1.00000000E+00  0.00000000E+00
  0.00000000E+00  0.00000000E+00  1.00000000E+00  0.00000000E+00  0.00000000E+00
  0.00000000E+00  1.00000000E+00  0.00000000E+00  0.00000000E+00  0.00000000E+00
  1.00000000E+00  0.00000000E+00  0.00000000E+00  0.00000000E+00  1.00000000E+00
  0.00000000E+00  0.00000000E+00  0.00000000E+00
Virial Ratio                               R      2.004340661757488E+00
SCF Energy                                 R     -2.691172975531496E+02
Total Energy                               R     -2.691172975531496E+02
RMS Density                                R      4.415692998142241E-09
External E-field                           R   N=          35
  0.00000000E+00  0.00000000E+00  0.00000000E+00  0.00000000E+00  0.00000000E+00
  0.00000000E+00  0.00000000E+00  0.00000000E+00  0.00000000E+00  0.00000000E+00
  0.00000000E+00  0.00000000E+00  0.00000000E+00  0.00000000E+00  0.00000000E+00
  0.00000000E+00  0.00000000E+00  0.00000000E+00  0.00000000E+00  0.00000000E+00
  0.00000000E+00  0.00000000E+00  0.00000000E+00  0.00000000E+00  0.00000000E+00
  0.00000000E+00  0.00000000E+00  0.00000000E+00  0.00000000E+00  0.00000000E+00
  0.00000000E+00  0.00000000E+00  0.00000000E+00  0.00000000E+00  0.00000000E+00
IOpCl                                      I                0
IROHF                                      I                0
Alpha Orbital Energies                     R   N=         252
 -1.87258376E+01 -9.95814818E+00 -9.91753917E+00 -9.90758902E+00 -9.89736845E+00
 -9.89661207E+00 -9.38328818E-01 -7.89867250E-01 -6.73814252E-01 -6.23745968E-01
 -5.22246081E-01 -4.91915896E-01 -4.43288402E-01 -4.30970281E-01 -3.72959309E-01
 -3.61927104E-01 -3.57413213E-01 -3.36635277E-01 -3.35454568E-01 -3.23203055E-01
 -2.49815414E-01 -1.95805242E-01 -8.27878015E-02 -1.54706300E-03  1.02792176E-02
  4.57892283E-02  5.90174533E-02  6.14101311E-02  7.68252911E-02  9.85894102E-02
  1.20918187E-01  1.23110876E-01  1.39937275E-01  1.46316040E-01  1.77186399E-01
  1.79793924E-01  1.95309197E-01  2.25530224E-01  2.37767611E-01  2.42920545E-01
  2.72767621E-01  2.86461449E-01  2.93864350E-01  3.12394129E-01  3.30821976E-01
  3.37484832E-01  3.54198826E-01  3.62973583E-01  3.64716062E-01  3.71031248E-01
  3.71380877E-01  3.78942732E-01  3.96767595E-01  4.05366402E-01  4.17878474E-01
  4.33067413E-01  4.59187914E-01  4.74014739E-01  5.01083823E-01  5.24398087E-01
  5.32396340E-01  5.92521595E-01  6.05377829E-01  6.15954207E-01  6.40365185E-01
  6.50649785E-01  7.22514733E-01  7.58157480E-01  7.69690217E-01  7.86491597E-01
  8.34862177E-01  8.49032330E-01  8.69825656E-01  8.77734949E-01  8.86073369E-01
  9.03229120E-01  9.32196940E-01  9.54755787E-01  9.60477036E-01  9.99998711E-01
  1.02554855E+00  1.03216189E+00  1.04458050E+00  1.06119462E+00  1.07009942E+00
  1.08722597E+00  1.12348451E+00  1.15686297E+00  1.16570052E+00  1.19493860E+00
  1.20109790E+00  1.23718302E+00  1.23897747E+00  1.26868530E+00  1.27512046E+00
  1.30863137E+00  1.31354208E+00  1.34284333E+00  1.35555259E+00  1.41988951E+00