qm7_0648                                                                
SP        RPBEPBE                                                     def2TZVP            
Number of atoms                            I               12
Info1-9                                    I   N=           9
          21          20           0           0           0         110
           1          18         902
Charge                                     I                0
Multiplicity                               I                1
Number of electrons                        I               42
Number of alpha electrons                  I               21
Number of beta electrons                   I               21
Number of basis functions                  I              252
Number of independent functions            I              252
Number of point charges in /Mol/           I                0
Number of translation vectors              I                0
Atomic numbers                             I   N=          12
           6           6           6           6           6           6
           1           1           1           1           1           1
Nuclear charges                            R   N=          12
  6.00000000E+00  6.00000000E+00  6.00000000E+00  6.00000000E+00  6.00000000E+00
  6.00000000E+00  1.00000000E+00  1.00000000E+00  1.00000000E+00  1.00000000E+00
  1.00000000E+00  1.00000000E+00
Current cartesian coordinates              R   N=          36
 -5.48398524E+00  8.24298539E-01  0.00000000E+00 -3.43854567E+00 -6.61593119E-01
  0.00000000E+00 -8.92139707E-01  3.20497552E-01  0.00000000E+00  1.15896904E+00
 -1.16539411E+00  0.00000000E+00  3.63488822E+00 -1.28501377E-01  0.00000000E+00
  5.73305114E+00  7.40016754E-01  0.00000000E+00 -7.36520760E+00  6.23609624E-03
  0.00000000E+00 -5.34943674E+00  2.87124989E+00  0.00000000E+00 -3.68704466E+00
 -2.70268632E+00  0.00000000E+00 -6.67073325E-01  2.36537020E+00  0.00000000E+00
  9.90216494E-01 -3.21045573E+00  0.00000000E+00  7.59102988E+00  1.51121399E+00
  0.00000000E+00
Force Field                                I                0
Int Atom Types                             I   N=          12
           0           0           0           0           0           0
           0           0           0           0           0           0
MM charges                                 R   N=          12
  0.00000000E+00  0.00000000E+00  0.00000000E+00  0.00000000E+00  0.00000000E+00
  0.00000000E+00  0.00000000E+00  0.00000000E+00  0.00000000E+00  0.00000000E+00
  0.00000000E+00  0.00000000E+00
Integer atomic weights                     I   N=          12
          12          12          12          12          12          12
           1           1           1           1           1           1
Real atomic weights                        R   N=          12
  1.20000000E+01  1.20000000E+01  1.20000000E+01  1.20000000E+01  1.20000000E+01
  1.20000000E+01  1.00782504E+00  1.00782504E+00  1.00782504E+00  1.00782504E+00
  1.00782504E+00  1.00782504E+00
Atom fragment info                         I   N=          12
           0           0           0           0           0           0
           0           0           0           0           0           0
Atom residue num                           I   N=          12
           0           0           0           0           0           0
           0           0           0           0           0           0
Nuclear spins                              I   N=          12
           0           0           0           0           0           0
           1           1           1           1           1           1
Nuclear ZEff                               R   N=          12
 -3.60000000E+00 -3.60000000E+00 -3.60000000E+00 -3.60000000E+00 -3.60000000E+00
 -3.60000000E+00 -1.00000000E+00 -1.00000000E+00 -1.00000000E+00 -1.00000000E+00
 -1.00000000E+00 -1.00000000E+00
Nuclear ZNuc                               R   N=          12
  6.00000000E+00  6.00000000E+00  6.00000000E+00  6.00000000E+00  6.00000000E+00
  6.00000000E+00  1.00000000E+00  1.00000000E+00  1.00000000E+00  1.00000000E+00
  1.00000000E+00  1.00000000E+00
Nuclear QMom                               R   N=          12
  0.00000000E+00  0.00000000E+00  0.00000000E+00  0.00000000E+00  0.00000000E+00
  0.00000000E+00  0.00000000E+00  0.00000000E+00  0.00000000E+00  0.00000000E+00
  0.00000000E+00  0.00000000E+00
Nuclear GFac                               R   N=          12
  0.00000000E+00  0.00000000E+00  0.00000000E+00  0.00000000E+00  0.00000000E+00
  0.00000000E+00  2.79284600E+00  2.79284600E+00  2.79284600E+00  2.79284600E+00
  2.79284600E+00  2.79284600E+00
MicOpt                                     I   N=          12
          -1          -1          -1          -1          -1          -1
          -1          -1          -1          -1          -1          -1
Number of contracted shells                I               90
Number of primitive shells                 I              156
Pure/Cartesian d shells                    I                1
Pure/Cartesian f shells                    I                1
Highest angular momentum                   I                3
Largest degree of contraction              I                6
Shell types                                I   N=          90
           0           0           0           0           0           1
           1           1           2           2           3           0
           0           0           0           0           1           1
           1           2           2           3           0           0
           0           0           0           1           1           1
           2           2           3           0           0           0
           0           0           1           1           1           2
           2           3           0           0           0           0
           0           1           1           1           2           2
           3           0           0           0           0           0
           1           1           1           2           2           3
           0           0           0           1           0           0
           0           1           0           0           0           1
           0           0           0           1           0           0
           0           1           0           0           0           1
Number of primitives per shell             I   N=          90
           6           2           1           1           1           4
           1           1           1           1           1           6
           2           1           1           1           4           1
           1           1           1           1           6           2
           1           1           1           4           1           1
           1           1           1           6           2           1
           1           1           4           1           1           1
           1           1           6           2           1           1
           1           4           1           1           1           1
           1           6           2           1           1           1
           4           1           1           1           1           1
           3           1           1           1           3           1
           1           1           3           1           1           1
           3           1           1           1           3           1
           1           1           3           1           1           1
Shell to atom map                          I   N=          90
           1           1           1           1           1           1
           1           1           1           1           1           2
           2           2           2           2           2           2
           2           2           2           2           3           3
           3           3           3           3           3           3
           3           3           3           4           4           4
           4           4           4           4           4           4
           4           4           5           5           5           5
           5           5           5           5           5           5
           5           6           6           6           6           6
           6           6           6           6           6           6
           7           7           7           7           8           8
           8           8           9           9           9           9
          10          10          10          10          11          11
          11          11          12          12          12          12
Primitive exponents                        R   N=         156
  1.35753497E+04  2.03523337E+03  4.63225624E+02  1.31200196E+02  4.28530159E+01
  1.55841858E+01  6.20671385E+00  2.57648965E+00  5.76963394E-01  2.29728314E-01
  9.51644400E-02  3.46972322E+01  7.95826228E+00  2.37808269E+00  8.14332082E-01
  2.88875473E-01  1.00568237E-01  1.09700000E+00  3.18000000E-01  7.61000000E-01
  1.35753497E+04  2.03523337E+03  4.63225624E+02  1.31200196E+02  4.28530159E+01
  1.55841858E+01  6.20671385E+00  2.57648965E+00  5.76963394E-01  2.29728314E-01
  9.51644400E-02  3.46972322E+01  7.95826228E+00  2.37808269E+00  8.14332082E-01
  2.88875473E-01  1.00568237E-01  1.09700000E+00  3.18000000E-01  7.61000000E-01
  1.35753497E+04  2.03523337E+03  4.63225624E+02  1.31200196E+02  4.28530159E+01
  1.55841858E+01  6.20671385E+00  2.57648965E+00  5.76963394E-01  2.29728314E-01
  9.51644400E-02  3.46972322E+01  7.95826228E+00  2.37808269E+00  8.14332082E-01
  2.88875473E-01  1.00568237E-01  1.09700000E+00  3.18000000E-01  7.61000000E-01
  1.35753497E+04  2.03523337E+03  4.63225624E+02  1.31200196E+02  4.28530159E+01
  1.55841858E+01  6.20671385E+00  2.57648965E+00  5.76963394E-01  2.29728314E-01
  9.51644400E-02  3.46972322E+01  7.95826228E+00  2.37808269E+00  8.14332082E-01
  2.88875473E-01  1.00568237E-01  1.09700000E+00  3.18000000E-01  7.61000000E-01
  1.35753497E+04  2.03523337E+03  4.63225624E+02  1.31200196E+02  4.28530159E+01
  1.55841858E+01  6.20671385E+00  2.57648965E+00  5.76963394E-01  2.29728314E-01
  9.51644400E-02  3.46972322E+01  7.95826228E+00  2.37808269E+00  8.14332082E-01
  2.88875473E-01  1.00568237E-01  1.09700000E+00  3.18000000E-01  7.61000000E-01
  1.35753497E+04  2.03523337E+03  4.63225624E+02  1.31200196E+02  4.28530159E+01
  1.55841858E+01  6.20671385E+00  2.57648965E+00  5.76963394E-01  2.29728314E-01
  9.51644400E-02  3.46972322E+01  7.95826228E+00  2.37808269E+00  8.14332082E-01
  2.88875473E-01  1.00568237E-01  1.09700000E+00  3.18000000E-01  7.61000000E-01
  3.40613410E+01  5.12357460E+00  1.16466260E+00  3.27230410E-01  1.03072410E-01
  8.00000000E-01  3.40613410E+01  5.12357460E+00  1.16466260E+00  3.27230410E-01
  1.03072410E-01  8.00000000E-01  3.40613410E+01  5.12357460E+00  1.16466260E+00
  3.27230410E-01  1.03072410E-01  8.00000000E-01  3.40613410E+01  5.12357460E+00
  1.16466260E+00  3.27230410E-01  1.03072410E-01  8.00000000E-01  3.40613410E+01
  5.12357460E+00  1.16466260E+00  3.27230410E-01  1.03072410E-01  8.00000000E-01
  3.40613410E+01  5.12357460E+00  1.16466260E+00  3.27230410E-01  1.03072410E-01
  8.00000000E-01
Contraction coefficients                   R   N=         156
  6.06455036E-04  4.69790889E-03  2.43324776E-02  9.73999683E-02  3.01955843E-01
  6.62336091E-01  6.55953085E-01  3.75856333E-01  1.00000000E+00  1.00000000E+00
  1.00000000E+00  1.13272200E-02  7.61696592E-02  3.01922522E-01  7.27850273E-01
  1.00000000E+00  1.00000000E+00  1.00000000E+00  1.00000000E+00  1.00000000E+00
  6.06455036E-04  4.69790889E-03  2.43324776E-02  9.73999683E-02  3.01955843E-01
  6.62336091E-01  6.55953085E-01  3.75856333E-01  1.00000000E+00  1.00000000E+00
  1.00000000E+00  1.13272200E-02  7.61696592E-02  3.01922522E-01  7.27850273E-01
  1.00000000E+00  1.00000000E+00  1.00000000E+00  1.00000000E+00  1.00000000E+00
  6.06455036E-04  4.69790889E-03  2.43324776E-02  9.73999683E-02  3.01955843E-01
  6.62336091E-01  6.55953085E-01  3.75856333E-01  1.00000000E+00  1.00000000E+00
  1.00000000E+00  1.13272200E-02  7.61696592E-02  3.01922522E-01  7.27850273E-01
  1.00000000E+00  1.00000000E+00  1.00000000E+00  1.00000000E+00  1.00000000E+00
  6.06455036E-04  4.69790889E-03  2.43324776E-02  9.73999683E-02  3.01955843E-01
  6.62336091E-01  6.55953085E-01  3.75856333E-01  1.00000000E+00  1.00000000E+00
  1.00000000E+00  1.13272200E-02  7.61696592E-02  3.01922522E-01  7.27850273E-01
  1.00000000E+00  1.00000000E+00  1.00000000E+00  1.00000000E+00  1.00000000E+00
  6.06455036E-04  4.69790889E-03  2.43324776E-02  9.73999683E-02  3.01955843E-01
  6.62336091E-01  6.55953085E-01  3.75856333E-01  1.00000000E+00  1.00000000E+00
  1.00000000E+00  1.13272200E-02  7.61696592E-02  3.01922522E-01  7.27850273E-01
  1.00000000E+00  1.00000000E+00  1.00000000E+00  1.00000000E+00  1.00000000E+00
  6.06455036E-04  4.69790889E-03  2.43324776E-02  9.73999683E-02  3.01955843E-01
  6.62336091E-01  6.55953085E-01  3.75856333E-01  1.00000000E+00  1.00000000E+00
  1.00000000E+00  1.13272200E-02  7.61696592E-02  3.01922522E-01  7.27850273E-01
  1.00000000E+00  1.00000000E+00  1.00000000E+00  1.00000000E+00  1.00000000E+00
  2.54393072E-02  1.90085949E-01  8.52441130E-01  1.00000000E+00  1.00000000E+00
  1.00000000E+00  2.54393072E-02  1.90085949E-01  8.52441130E-01  1.00000000E+00
  1.00000000E+00  1.00000000E+00  2.54393072E-02  1.90085949E-01  8.52441130E-01
  1.00000000E+00  1.00000000E+00  1.00000000E+00  2.54393072E-02  1.90085949E-01
  8.52441130E-01  1.00000000E+00  1.00000000E+00  1.00000000E+00  2.54393072E-02
  1.90085949E-01  8.52441130E-01  1.00000000E+00  1.00000000E+00  1.00000000E+00
  2.54393072E-02  1.90085949E-01  8.52441130E-01  1.00000000E+00  1.00000000E+00
  1.00000000E+00
Coordinates of each shell                  R   N=         270
 -5.48398524E+00  8.24298539E-01  0.00000000E+00 -5.48398524E+00  8.24298539E-01
  0.00000000E+00 -5.48398524E+00  8.24298539E-01  0.00000000E+00 -5.48398524E+00
  8.24298539E-01  0.00000000E+00 -5.48398524E+00  8.24298539E-01  0.00000000E+00
 -5.48398524E+00  8.24298539E-01  0.00000000E+00 -5.48398524E+00  8.24298539E-01
  0.00000000E+00 -5.48398524E+00  8.24298539E-01  0.00000000E+00 -5.48398524E+00
  8.24298539E-01  0.00000000E+00 -5.48398524E+00  8.24298539E-01  0.00000000E+00
 -5.48398524E+00  8.24298539E-01  0.00000000E+00 -3.43854567E+00 -6.61593119E-01
  0.00000000E+00 -3.43854567E+00 -6.61593119E-01  0.00000000E+00 -3.43854567E+00
 -6.61593119E-01  0.00000000E+00 -3.43854567E+00 -6.61593119E-01  0.00000000E+00
 -3.43854567E+00 -6.61593119E-01  0.00000000E+00 -3.43854567E+00 -6.61593119E-01
  0.00000000E+00 -3.43854567E+00 -6.61593119E-01  0.00000000E+00 -3.43854567E+00
 -6.61593119E-01  0.00000000E+00 -3.43854567E+00 -6.61593119E-01  0.00000000E+00
 -3.43854567E+00 -6.61593119E-01  0.00000000E+00 -3.43854567E+00 -6.61593119E-01
  0.00000000E+00 -8.92139707E-01  3.20497552E-01  0.00000000E+00 -8.92139707E-01
  3.20497552E-01  0.00000000E+00 -8.92139707E-01  3.20497552E-01  0.00000000E+00
 -8.92139707E-01  3.20497552E-01  0.00000000E+00 -8.92139707E-01  3.20497552E-01
  0.00000000E+00 -8.92139707E-01  3.20497552E-01  0.00000000E+00 -8.92139707E-01
  3.20497552E-01  0.00000000E+00 -8.92139707E-01  3.20497552E-01  0.00000000E+00
 -8.92139707E-01  3.20497552E-01  0.00000000E+00 -8.92139707E-01  3.20497552E-01
  0.00000000E+00 -8.92139707E-01  3.20497552E-01  0.00000000E+00  1.15896904E+00
 -1.16539411E+00  0.00000000E+00  1.15896904E+00 -1.16539411E+00  0.00000000E+00
  1.15896904E+00 -1.16539411E+00  0.00000000E+00  1.15896904E+00 -1.16539411E+00
  0.00000000E+00  1.15896904E+00 -1.16539411E+00  0.00000000E+00  1.15896904E+00
 -1.16539411E+00  0.00000000E+00  1.15896904E+00 -1.16539411E+00  0.00000000E+00
  1.15896904E+00 -1.16539411E+00  0.00000000E+00  1.15896904E+00 -1.16539411E+00
  0.00000000E+00  1.15896904E+00 -1.16539411E+00  0.00000000E+00  1.15896904E+00
 -1.16539411E+00  0.00000000E+00  3.63488822E+00 -1.28501377E-01  0.00000000E+00
  3.63488822E+00 -1.28501377E-01  0.00000000E+00  3.63488822E+00 -1.28501377E-01
  0.00000000E+00  3.63488822E+00 -1.28501377E-01  0.00000000E+00  3.63488822E+00
 -1.28501377E-01  0.00000000E+00  3.63488822E+00 -1.28501377E-01  0.00000000E+00
  3.63488822E+00 -1.28501377E-01  0.00000000E+00  3.63488822E+00 -1.28501377E-01
  0.00000000E+00  3.63488822E+00 -1.28501377E-01  0.00000000E+00  3.63488822E+00
 -1.28501377E-01  0.00000000E+00  3.63488822E+00 -1.28501377E-01  0.00000000E+00
  5.73305114E+00  7.40016754E-01  0.00000000E+00  5.73305114E+00  7.40016754E-01
  0.00000000E+00  5.73305114E+00  7.40016754E-01  0.00000000E+00  5.73305114E+00
  7.40016754E-01  0.00000000E+00  5.73305114E+00  7.40016754E-01  0.00000000E+00
  5.73305114E+00  7.40016754E-01  0.00000000E+00  5.73305114E+00  7.40016754E-01
  0.00000000E+00  5.73305114E+00  7.40016754E-01  0.00000000E+00  5.73305114E+00
  7.40016754E-01  0.00000000E+00  5.73305114E+00  7.40016754E-01  0.00000000E+00
  5.73305114E+00  7.40016754E-01  0.00000000E+00 -7.36520760E+00  6.23609624E-03
  0.00000000E+00 -7.36520760E+00  6.23609624E-03  0.00000000E+00 -7.36520760E+00
  6.23609624E-03  0.00000000E+00 -7.36520760E+00  6.23609624E-03  0.00000000E+00
 -5.34943674E+00  2.87124989E+00  0.00000000E+00 -5.34943674E+00  2.87124989E+00
  0.00000000E+00 -5.34943674E+00  2.87124989E+00  0.00000000E+00 -5.34943674E+00
  2.87124989E+00  0.00000000E+00 -3.68704466E+00 -2.70268632E+00  0.00000000E+00
 -3.68704466E+00 -2.70268632E+00  0.00000000E+00 -3.68704466E+00 -2.70268632E+00
  0.00000000E+00 -3.68704466E+00 -2.70268632E+00  0.00000000E+00 -6.67073325E-01
  2.36537020E+00  0.00000000E+00 -6.67073325E-01  2.36537020E+00  0.00000000E+00
 -6.67073325E-01  2.36537020E+00  0.00000000E+00 -6.67073325E-01  2.36537020E+00
  0.00000000E+00  9.90216494E-01 -3.21045573E+00  0.00000000E+00  9.90216494E-01
 -3.21045573E+00  0.00000000E+00  9.90216494E-01 -3.21045573E+00  0.00000000E+00
  9.90216494E-01 -3.21045573E+00  0.00000000E+00  7.59102988E+00  1.51121399E+00
  0.00000000E+00  7.59102988E+00  1.51121399E+00  0.00000000E+00  7.59102988E+00
  1.51121399E+00  0.00000000E+00  7.59102988E+00  1.51121399E+00  0.00000000E+00
Constraint Structure                       R   N=          36
 -5.48398524E+00  8.24298539E-01  0.00000000E+00 -3.43854567E+00 -6.61593119E-01
  0.00000000E+00 -8.92139707E-01  3.20497552E-01  0.00000000E+00  1.15896904E+00
 -1.16539411E+00  0.00000000E+00  3.63488822E+00 -1.28501377E-01  0.00000000E+00
  5.73305114E+00  7.40016754E-01  0.00000000E+00 -7.36520760E+00  6.23609624E-03
  0.00000000E+00 -5.34943674E+00  2.87124989E+00  0.00000000E+00 -3.68704466E+00
 -2.70268632E+00  0.00000000E+00 -6.67073325E-01  2.36537020E+00  0.00000000E+00
  9.90216494E-01 -3.21045573E+00  0.00000000E+00  7.59102988E+00  1.51121399E+00
  0.00000000E+00
Num ILSW                                   I              100
ILSW                                       I   N=         100
           0           1           0           0           2           0
           0           0           0           0        1009          -1
           5           0           0           1           0           0
           0           0           1           0           0           0
           1           1           0           0           0           0
           0           0      100000           0          -1           0
           0           0           0           0           0           0
           0           0           0           1           0           0
           0           0           1           0           0           0
           0           0           4          41           0           0
           0           0           0           0           0           0
           0           0           0           0           0           0
           0           0           0           0           0           0
           0           0           0           0           0           0
           0           0           0           0           0           0
           0           0           0           0           0           0
           0           0           0           0
Num RLSW                                   I               41
RLSW                                       R   N=          41
  1.00000000E+00  1.00000000E+00  1.00000000E+00  1.00000000E+00  0.00000000E+00
  0.00000000E+00  0.00000000E+00  1.00000000E+00  0.00000000E+00  0.00000000E+00
  0.00000000E+00  0.00000000E+00  1.00000000E+00  0.00000000E+00  0.00000000E+00
  0.00000000E+00  0.00000000E+00  1.00000000E+00  0.00000000E+00  0.00000000E+00
  0.00000000E+00  0.00000000E+00  1.00000000E+00  0.00000000E+00  0.00000000E+00
  0.00000000E+00  0.00000000E+00  1.00000000E+00  0.00000000E+00  0.00000000E+00
  0.00000000E+00  0.00000000E+00  1.00000000E+00  0.00000000E+00  0.00000000E+00
  0.00000000E+00  0.00000000E+00  0.00000000E+00  1.00000000E+00  1.00000000E+00
  0.00000000E+00
ECP-MxAtEC                                 I           250000
ECP-MaxLECP                                I               10
ECP-MaxAtL                                 I          2250000
ECP-MxTECP                                 I         11250000
ECP-LenNCZ                                 I                0
ECP-KFirst                                 I   N=         120
           0           0           0           0           0           0
           0           0           0           0           0           0
           0           0           0           0           0           0
           0           0           0           0           0           0
           0           0           0           0           0           0
           0           0           0           0           0           0
           0           0           0           0           0           0
           0           0           0           0           0           0
           0           0           0           0           0           0
           0           0           0           0           0           0
           0           0           0           0           0           0
           0           0           0           0           0           0
           0           0           0           0           0           0
           0           0           0           0           0           0
           0           0           0           0           0           0
           0           0           0           0           0           0
           0           0           0           0           0           0
           0           0           0           0           0           0
           0           0           0           0           0           0
           0           0           0           0           0           0
ECP-KLast                                  I   N=         120
           0           0           0           0           0           0
           0           0           0           0           0           0
           0           0           0           0           0           0
           0           0           0           0           0           0
           0           0           0           0           0           0
           0           0           0           0           0           0
           0           0           0           0           0           0
           0           0           0           0           0           0
           0           0           0           0           0           0
           0           0           0           0           0           0
           0           0           0           0           0           0
           0           0           0           0           0           0
           0           0           0           0           0           0
           0           0           0           0           0           0
           0           0           0           0           0           0
           0           0           0           0           0           0
           0           0           0           0           0           0
           0           0           0           0           0           0
           0           0           0           0           0           0
           0           0           0           0           0           0
ECP-LMax                                   I   N=          12
           0           0           0           0           0           0
           0           0           0           0           0           0
ECP-LPSkip                                 I   N=          12
           1           1           1           1           1           1
           1           1           1           1           1           1
ECP-RNFroz                                 R   N=          12
  0.00000000E+00  0.00000000E+00  0.00000000E+00  0.00000000E+00  0.00000000E+00
  0.00000000E+00  0.00000000E+00  0.00000000E+00  0.00000000E+00  0.00000000E+00
  0.00000000E+00  0.00000000E+00
ECP-NLP                                    I                0
ECP-CLP1                                   R      0.000000000000000E+00
ECP-CLP2                                   R      0.000000000000000E+00
ECP-ZLP                                    R      0.000000000000000E+00
MxBond                                     I                3
NBond                                      I   N=          12
           3           3           3           3           2           2
           1           1           1           1           1           1
IBond                                      I   N=          36
           2           7           8           1           3           9
           2           4          10           3           5          11
           4           6           0           5          12           0
           1           0           0           1           0           0
           2           0           0           3           0           0
           4           0           0           6           0           0
RBond                                      R   N=          36
  2.00000000E+00  1.00000000E+00  1.00000000E+00  2.00000000E+00  1.00000000E+00
  1.00000000E+00  1.00000000E+00  2.00000000E+00  1.00000000E+00  2.00000000E+00
  1.50000000E+00  1.00000000E+00  1.50000000E+00  3.00000000E+00  0.00000000E+00
  3.00000000E+00  1.00000000E+00  0.00000000E+00  1.00000000E+00  0.00000000E+00
  0.00000000E+00  1.00000000E+00  0.00000000E+00  0.00000000E+00  1.00000000E+00
  0.00000000E+00  0.00000000E+00  1.00000000E+00  0.00000000E+00  0.00000000E+00
  1.00000000E+00  0.00000000E+00  0.00000000E+00  1.00000000E+00  0.00000000E+00
  0.00000000E+00
Virial Ratio                               R      2.004858811313341E+00
SCF Energy                                 R     -2.319158777599203E+02
Total Energy                               R     -2.319158777599203E+02
RMS Density                                R      1.767636411183786E-09
External E-field                           R   N=          35
  0.00000000E+00  0.00000000E+00  0.00000000E+00  0.00000000E+00  0.00000000E+00
  0.00000000E+00  0.00000000E+00  0.00000000E+00  0.00000000E+00  0.00000000E+00
  0.00000000E+00  0.00000000E+00  0.00000000E+00  0.00000000E+00  0.00000000E+00
  0.00000000E+00  0.00000000E+00  0.00000000E+00  0.00000000E+00  0.00000000E+00
  0.00000000E+00  0.00000000E+00  0.00000000E+00  0.00000000E+00  0.00000000E+00
  0.00000000E+00  0.00000000E+00  0.00000000E+00  0.00000000E+00  0.00000000E+00
  0.00000000E+00  0.00000000E+00  0.00000000E+00  0.00000000E+00  0.00000000E+00
IOpCl                                      I                0
IROHF                                      I                0
Alpha Orbital Energies                     R   N=         252
 -9.91407690E+00 -9.90588606E+00 -9.90246298E+00 -9.89385342E+00 -9.89288258E+00
 -9.88450992E+00 -7.57006908E-01 -7.06641982E-01 -6.59205238E-01 -5.74446288E-01
 -5.12271453E-01 -4.82598063E-01 -4.41060655E-01 -4.35673205E-01 -3.67710371E-01
 -3.61527248E-01 -3.23168551E-01 -3.20753685E-01 -2.73807567E-01 -2.50359149E-01
 -2.07121515E-01 -8.81292728E-02  1.93073034E-04  6.84605683E-04  3.80119040E-02
  4.74027573E-02  5.61862101E-02  5.99585069E-02  6.75065392E-02  8.96866710E-02
  1.01234317E-01  1.27827357E-01  1.29671583E-01  1.56049017E-01  1.61184313E-01
  1.82964366E-01  1.93192508E-01  1.97530138E-01  2.04802945E-01  2.16856277E-01
  2.35560728E-01  2.58433411E-01  2.62143773E-01  2.74741116E-01  2.95019955E-01
  3.02443264E-01  3.22430009E-01  3.41308597E-01  3.55379789E-01  3.59775161E-01
  3.71283626E-01  3.92749353E-01  3.99940759E-01  4.05452121E-01  4.21531217E-01
  4.37908576E-01  4.75993598E-01  5.00352889E-01  5.03623463E-01  5.17644013E-01
  5.43472974E-01  5.50764519E-01  5.74832614E-01  5.79451673E-01  5.95199926E-01
  5.97221857E-01  6.16393526E-01  6.42985346E-01  6.66475417E-01  6.71365992E-01
  7.35081509E-01  7.71024693E-01  7.89193200E-01  8.13689858E-01  8.32181101E-01
  8.42274180E-01  8.62941891E-01  8.64669530E-01  8.85380293E-01  9.00651189E-01
  9.24569973E-01  9.43937044E-01  9.99682986E-01  1.01658710E+00  1.02584944E+00
  1.03690763E+00  1.04536165E+00  1.04938660E+00  1.07528166E+00  1.08996865E+00
  1.11610318E+00  1.11626883E+00  1.13498874E+00  1.15926810E+00  1.20042972E+00
  1.22807100E+00  1.23040250E+00  1.25154625E+00  1.26286450E+00  1.27061700E+00
  1.28591619E+00  1.30479284E+00  1.33803210E+00  1.34224338E+00  1.38388374E+00
  1.39549770E+00  1.41018666E+00  1.44109715E+00  1.48803117E+00  1.49285699E+00
  1.52900544E+00  1.57373340E+00  1.58380103E+00  1.61199883E+00  1.67302445E+00
  1.67591920E+00  1.73450287E+00  1.74879050E+00  1.79758856E+00  1.87190762E+00