qm7_0562                                                                
SP        RPBEPBE                                                     def2TZVP            
Number of atoms                            I               10
Info1-9                                    I   N=           9
          19          18           0           0           0         110
           1          18         902
Charge                                     I                0
Multiplicity                               I                1
Number of electrons                        I               42
Number of alpha electrons                  I               21
Number of beta electrons                   I               21
Number of basis functions                  I              240
Number of independent functions            I              240
Number of point charges in /Mol/           I                0
Number of translation vectors              I                0
Atomic numbers                             I   N=          10
           7           6           6           6           6           7
           1           1           1           1
Nuclear charges                            R   N=          10
  7.00000000E+00  6.00000000E+00  6.00000000E+00  6.00000000E+00  6.00000000E+00
  7.00000000E+00  1.00000000E+00  1.00000000E+00  1.00000000E+00  1.00000000E+00
Current cartesian coordinates              R   N=          30
 -5.57922743E+00  3.36182279E-01  0.00000000E+00 -3.50241841E+00 -3.10293031E-01
  0.00000000E+00 -8.97052995E-01 -1.12136349E+00  1.88972613E-04  8.71163747E-01
  1.15159911E+00  0.00000000E+00  3.51394574E+00  3.18796799E-01  0.00000000E+00
  5.59283346E+00 -3.73598856E-01  0.00000000E+00 -5.27422564E-01 -2.30735561E+00
 -1.65974646E+00 -5.27611536E-01 -2.30735561E+00  1.65993544E+00  5.17407015E-01
  2.33721328E+00  1.66333694E+00  5.17218043E-01  2.33740225E+00 -1.66314797E+00
Force Field                                I                0
Int Atom Types                             I   N=          10
           0           0           0           0           0           0
           0           0           0           0
MM charges                                 R   N=          10
  0.00000000E+00  0.00000000E+00  0.00000000E+00  0.00000000E+00  0.00000000E+00
  0.00000000E+00  0.00000000E+00  0.00000000E+00  0.00000000E+00  0.00000000E+00
Integer atomic weights                     I   N=          10
          14          12          12          12          12          14
           1           1           1           1
Real atomic weights                        R   N=          10
  1.40030740E+01  1.20000000E+01  1.20000000E+01  1.20000000E+01  1.20000000E+01
  1.40030740E+01  1.00782504E+00  1.00782504E+00  1.00782504E+00  1.00782504E+00
Atom fragment info                         I   N=          10
           0           0           0           0           0           0
           0           0           0           0
Atom residue num                           I   N=          10
           0           0           0           0           0           0
           0           0           0           0
Nuclear spins                              I   N=          10
           2           0           0           0           0           2
           1           1           1           1
Nuclear ZEff                               R   N=          10
 -4.55000000E+00 -3.60000000E+00 -3.60000000E+00 -3.60000000E+00 -3.60000000E+00
 -4.55000000E+00 -1.00000000E+00 -1.00000000E+00 -1.00000000E+00 -1.00000000E+00
Nuclear ZNuc                               R   N=          10
  7.00000000E+00  6.00000000E+00  6.00000000E+00  6.00000000E+00  6.00000000E+00
  7.00000000E+00  1.00000000E+00  1.00000000E+00  1.00000000E+00  1.00000000E+00
Nuclear QMom                               R   N=          10
  2.04400000E+00  0.00000000E+00  0.00000000E+00  0.00000000E+00  0.00000000E+00
  2.04400000E+00  0.00000000E+00  0.00000000E+00  0.00000000E+00  0.00000000E+00
Nuclear GFac                               R   N=          10
  4.03761000E-01  0.00000000E+00  0.00000000E+00  0.00000000E+00  0.00000000E+00
  4.03761000E-01  2.79284600E+00  2.79284600E+00  2.79284600E+00  2.79284600E+00
MicOpt                                     I   N=          10
          -1          -1          -1          -1          -1          -1
          -1          -1          -1          -1
Number of contracted shells                I               82
Number of primitive shells                 I              144
Pure/Cartesian d shells                    I                1
Pure/Cartesian f shells                    I                1
Highest angular momentum                   I                3
Largest degree of contraction              I                6
Shell types                                I   N=          82
           0           0           0           0           0           1
           1           1           2           2           3           0
           0           0           0           0           1           1
           1           2           2           3           0           0
           0           0           0           1           1           1
           2           2           3           0           0           0
           0           0           1           1           1           2
           2           3           0           0           0           0
           0           1           1           1           2           2
           3           0           0           0           0           0
           1           1           1           2           2           3
           0           0           0           1           0           0
           0           1           0           0           0           1
           0           0           0           1
Number of primitives per shell             I   N=          82
           6           2           1           1           1           4
           1           1           1           1           1           6
           2           1           1           1           4           1
           1           1           1           1           6           2
           1           1           1           4           1           1
           1           1           1           6           2           1
           1           1           4           1           1           1
           1           1           6           2           1           1
           1           4           1           1           1           1
           1           6           2           1           1           1
           4           1           1           1           1           1
           3           1           1           1           3           1
           1           1           3           1           1           1
           3           1           1           1
Shell to atom map                          I   N=          82
           1           1           1           1           1           1
           1           1           1           1           1           2
           2           2           2           2           2           2
           2           2           2           2           3           3
           3           3           3           3           3           3
           3           3           3           4           4           4
           4           4           4           4           4           4
           4           4           5           5           5           5
           5           5           5           5           5           5
           5           6           6           6           6           6
           6           6           6           6           6           6
           7           7           7           7           8           8
           8           8           9           9           9           9
          10          10          10          10
Primitive exponents                        R   N=         144
  1.97308006E+04  2.95789587E+03  6.73221336E+02  1.90682495E+02  6.22954419E+01
  2.26541612E+01  8.97914774E+00  3.68630024E+00  8.46600768E-01  3.36471338E-01
  1.36476537E-01  4.92003805E+01  1.13467905E+01  3.42739724E+00  1.17855251E+00
  4.16422050E-01  1.42608260E-01  1.65400000E+00  4.69000000E-01  1.09300000E+00
  1.35753497E+04  2.03523337E+03  4.63225624E+02  1.31200196E+02  4.28530159E+01
  1.55841858E+01  6.20671385E+00  2.57648965E+00  5.76963394E-01  2.29728314E-01
  9.51644400E-02  3.46972322E+01  7.95826228E+00  2.37808269E+00  8.14332082E-01
  2.88875473E-01  1.00568237E-01  1.09700000E+00  3.18000000E-01  7.61000000E-01
  1.35753497E+04  2.03523337E+03  4.63225624E+02  1.31200196E+02  4.28530159E+01
  1.55841858E+01  6.20671385E+00  2.57648965E+00  5.76963394E-01  2.29728314E-01
  9.51644400E-02  3.46972322E+01  7.95826228E+00  2.37808269E+00  8.14332082E-01
  2.88875473E-01  1.00568237E-01  1.09700000E+00  3.18000000E-01  7.61000000E-01
  1.35753497E+04  2.03523337E+03  4.63225624E+02  1.31200196E+02  4.28530159E+01
  1.55841858E+01  6.20671385E+00  2.57648965E+00  5.76963394E-01  2.29728314E-01
  9.51644400E-02  3.46972322E+01  7.95826228E+00  2.37808269E+00  8.14332082E-01
  2.88875473E-01  1.00568237E-01  1.09700000E+00  3.18000000E-01  7.61000000E-01
  1.35753497E+04  2.03523337E+03  4.63225624E+02  1.31200196E+02  4.28530159E+01
  1.55841858E+01  6.20671385E+00  2.57648965E+00  5.76963394E-01  2.29728314E-01
  9.51644400E-02  3.46972322E+01  7.95826228E+00  2.37808269E+00  8.14332082E-01
  2.88875473E-01  1.00568237E-01  1.09700000E+00  3.18000000E-01  7.61000000E-01
  1.97308006E+04  2.95789587E+03  6.73221336E+02  1.90682495E+02  6.22954419E+01
  2.26541612E+01  8.97914774E+00  3.68630024E+00  8.46600768E-01  3.36471338E-01
  1.36476537E-01  4.92003805E+01  1.13467905E+01  3.42739724E+00  1.17855251E+00
  4.16422050E-01  1.42608260E-01  1.65400000E+00  4.69000000E-01  1.09300000E+00
  3.40613410E+01  5.12357460E+00  1.16466260E+00  3.27230410E-01  1.03072410E-01
  8.00000000E-01  3.40613410E+01  5.12357460E+00  1.16466260E+00  3.27230410E-01
  1.03072410E-01  8.00000000E-01  3.40613410E+01  5.12357460E+00  1.16466260E+00
  3.27230410E-01  1.03072410E-01  8.00000000E-01  3.40613410E+01  5.12357460E+00
  1.16466260E+00  3.27230410E-01  1.03072410E-01  8.00000000E-01
Contraction coefficients                   R   N=         144
  5.86264026E-04  4.54288206E-03  2.35584135E-02  9.47091933E-02  2.97197849E-01
  6.69162469E-01  6.45966836E-01  3.87005744E-01  1.00000000E+00  1.00000000E+00
  1.00000000E+00  1.14488251E-02  7.84223380E-02  3.08180947E-01  7.20271964E-01
  1.00000000E+00  1.00000000E+00  1.00000000E+00  1.00000000E+00  1.00000000E+00
  6.06455036E-04  4.69790889E-03  2.43324776E-02  9.73999683E-02  3.01955843E-01
  6.62336091E-01  6.55953085E-01  3.75856333E-01  1.00000000E+00  1.00000000E+00
  1.00000000E+00  1.13272200E-02  7.61696592E-02  3.01922522E-01  7.27850273E-01
  1.00000000E+00  1.00000000E+00  1.00000000E+00  1.00000000E+00  1.00000000E+00
  6.06455036E-04  4.69790889E-03  2.43324776E-02  9.73999683E-02  3.01955843E-01
  6.62336091E-01  6.55953085E-01  3.75856333E-01  1.00000000E+00  1.00000000E+00
  1.00000000E+00  1.13272200E-02  7.61696592E-02  3.01922522E-01  7.27850273E-01
  1.00000000E+00  1.00000000E+00  1.00000000E+00  1.00000000E+00  1.00000000E+00
  6.06455036E-04  4.69790889E-03  2.43324776E-02  9.73999683E-02  3.01955843E-01
  6.62336091E-01  6.55953085E-01  3.75856333E-01  1.00000000E+00  1.00000000E+00
  1.00000000E+00  1.13272200E-02  7.61696592E-02  3.01922522E-01  7.27850273E-01
  1.00000000E+00  1.00000000E+00  1.00000000E+00  1.00000000E+00  1.00000000E+00
  6.06455036E-04  4.69790889E-03  2.43324776E-02  9.73999683E-02  3.01955843E-01
  6.62336091E-01  6.55953085E-01  3.75856333E-01  1.00000000E+00  1.00000000E+00
  1.00000000E+00  1.13272200E-02  7.61696592E-02  3.01922522E-01  7.27850273E-01
  1.00000000E+00  1.00000000E+00  1.00000000E+00  1.00000000E+00  1.00000000E+00
  5.86264026E-04  4.54288206E-03  2.35584135E-02  9.47091933E-02  2.97197849E-01
  6.69162469E-01  6.45966836E-01  3.87005744E-01  1.00000000E+00  1.00000000E+00
  1.00000000E+00  1.14488251E-02  7.84223380E-02  3.08180947E-01  7.20271964E-01
  1.00000000E+00  1.00000000E+00  1.00000000E+00  1.00000000E+00  1.00000000E+00
  2.54393072E-02  1.90085949E-01  8.52441130E-01  1.00000000E+00  1.00000000E+00
  1.00000000E+00  2.54393072E-02  1.90085949E-01  8.52441130E-01  1.00000000E+00
  1.00000000E+00  1.00000000E+00  2.54393072E-02  1.90085949E-01  8.52441130E-01
  1.00000000E+00  1.00000000E+00  1.00000000E+00  2.54393072E-02  1.90085949E-01
  8.52441130E-01  1.00000000E+00  1.00000000E+00  1.00000000E+00
Coordinates of each shell                  R   N=         246
 -5.57922743E+00  3.36182279E-01  0.00000000E+00 -5.57922743E+00  3.36182279E-01
  0.00000000E+00 -5.57922743E+00  3.36182279E-01  0.00000000E+00 -5.57922743E+00
  3.36182279E-01  0.00000000E+00 -5.57922743E+00  3.36182279E-01  0.00000000E+00
 -5.57922743E+00  3.36182279E-01  0.00000000E+00 -5.57922743E+00  3.36182279E-01
  0.00000000E+00 -5.57922743E+00  3.36182279E-01  0.00000000E+00 -5.57922743E+00
  3.36182279E-01  0.00000000E+00 -5.57922743E+00  3.36182279E-01  0.00000000E+00
 -5.57922743E+00  3.36182279E-01  0.00000000E+00 -3.50241841E+00 -3.10293031E-01
  0.00000000E+00 -3.50241841E+00 -3.10293031E-01  0.00000000E+00 -3.50241841E+00
 -3.10293031E-01  0.00000000E+00 -3.50241841E+00 -3.10293031E-01  0.00000000E+00
 -3.50241841E+00 -3.10293031E-01  0.00000000E+00 -3.50241841E+00 -3.10293031E-01
  0.00000000E+00 -3.50241841E+00 -3.10293031E-01  0.00000000E+00 -3.50241841E+00
 -3.10293031E-01  0.00000000E+00 -3.50241841E+00 -3.10293031E-01  0.00000000E+00
 -3.50241841E+00 -3.10293031E-01  0.00000000E+00 -3.50241841E+00 -3.10293031E-01
  0.00000000E+00 -8.97052995E-01 -1.12136349E+00  1.88972613E-04 -8.97052995E-01
 -1.12136349E+00  1.88972613E-04 -8.97052995E-01 -1.12136349E+00  1.88972613E-04
 -8.97052995E-01 -1.12136349E+00  1.88972613E-04 -8.97052995E-01 -1.12136349E+00
  1.88972613E-04 -8.97052995E-01 -1.12136349E+00  1.88972613E-04 -8.97052995E-01
 -1.12136349E+00  1.88972613E-04 -8.97052995E-01 -1.12136349E+00  1.88972613E-04
 -8.97052995E-01 -1.12136349E+00  1.88972613E-04 -8.97052995E-01 -1.12136349E+00
  1.88972613E-04 -8.97052995E-01 -1.12136349E+00  1.88972613E-04  8.71163747E-01
  1.15159911E+00  0.00000000E+00  8.71163747E-01  1.15159911E+00  0.00000000E+00
  8.71163747E-01  1.15159911E+00  0.00000000E+00  8.71163747E-01  1.15159911E+00
  0.00000000E+00  8.71163747E-01  1.15159911E+00  0.00000000E+00  8.71163747E-01
  1.15159911E+00  0.00000000E+00  8.71163747E-01  1.15159911E+00  0.00000000E+00
  8.71163747E-01  1.15159911E+00  0.00000000E+00  8.71163747E-01  1.15159911E+00
  0.00000000E+00  8.71163747E-01  1.15159911E+00  0.00000000E+00  8.71163747E-01
  1.15159911E+00  0.00000000E+00  3.51394574E+00  3.18796799E-01  0.00000000E+00
  3.51394574E+00  3.18796799E-01  0.00000000E+00  3.51394574E+00  3.18796799E-01
  0.00000000E+00  3.51394574E+00  3.18796799E-01  0.00000000E+00  3.51394574E+00
  3.18796799E-01  0.00000000E+00  3.51394574E+00  3.18796799E-01  0.00000000E+00
  3.51394574E+00  3.18796799E-01  0.00000000E+00  3.51394574E+00  3.18796799E-01
  0.00000000E+00  3.51394574E+00  3.18796799E-01  0.00000000E+00  3.51394574E+00
  3.18796799E-01  0.00000000E+00  3.51394574E+00  3.18796799E-01  0.00000000E+00
  5.59283346E+00 -3.73598856E-01  0.00000000E+00  5.59283346E+00 -3.73598856E-01
  0.00000000E+00  5.59283346E+00 -3.73598856E-01  0.00000000E+00  5.59283346E+00
 -3.73598856E-01  0.00000000E+00  5.59283346E+00 -3.73598856E-01  0.00000000E+00
  5.59283346E+00 -3.73598856E-01  0.00000000E+00  5.59283346E+00 -3.73598856E-01
  0.00000000E+00  5.59283346E+00 -3.73598856E-01  0.00000000E+00  5.59283346E+00
 -3.73598856E-01  0.00000000E+00  5.59283346E+00 -3.73598856E-01  0.00000000E+00
  5.59283346E+00 -3.73598856E-01  0.00000000E+00 -5.27422564E-01 -2.30735561E+00
 -1.65974646E+00 -5.27422564E-01 -2.30735561E+00 -1.65974646E+00 -5.27422564E-01
 -2.30735561E+00 -1.65974646E+00 -5.27422564E-01 -2.30735561E+00 -1.65974646E+00
 -5.27611536E-01 -2.30735561E+00  1.65993544E+00 -5.27611536E-01 -2.30735561E+00
  1.65993544E+00 -5.27611536E-01 -2.30735561E+00  1.65993544E+00 -5.27611536E-01
 -2.30735561E+00  1.65993544E+00  5.17407015E-01  2.33721328E+00  1.66333694E+00
  5.17407015E-01  2.33721328E+00  1.66333694E+00  5.17407015E-01  2.33721328E+00
  1.66333694E+00  5.17407015E-01  2.33721328E+00  1.66333694E+00  5.17218043E-01
  2.33740225E+00 -1.66314797E+00  5.17218043E-01  2.33740225E+00 -1.66314797E+00
  5.17218043E-01  2.33740225E+00 -1.66314797E+00  5.17218043E-01  2.33740225E+00
 -1.66314797E+00
Constraint Structure                       R   N=          30
 -5.57922743E+00  3.36182279E-01  0.00000000E+00 -3.50241841E+00 -3.10293031E-01
  0.00000000E+00 -8.97052995E-01 -1.12136349E+00  1.88972613E-04  8.71163747E-01
  1.15159911E+00  0.00000000E+00  3.51394574E+00  3.18796799E-01  0.00000000E+00
  5.59283346E+00 -3.73598856E-01  0.00000000E+00 -5.27422564E-01 -2.30735561E+00
 -1.65974646E+00 -5.27611536E-01 -2.30735561E+00  1.65993544E+00  5.17407015E-01
  2.33721328E+00  1.66333694E+00  5.17218043E-01  2.33740225E+00 -1.66314797E+00
Num ILSW                                   I              100
ILSW                                       I   N=         100
           0           1           0           0           2           0
           0           0           0           0        1009          -1
           5           0           0           1           0           0
           0           0           1           0           0           0
           1           1           0           0           0           0
           0           0      100000           0          -1           0
           0           0           0           0           0           0
           0           0           0           1           0           0
           0           0           1           0           0           0
           0           0           4          41           0           0
           0           0           0           0           0           0
           0           0           0           0           0           0
           0           0           0           0           0           0
           0           0           0           0           0           0
           0           0           0           0           0           0
           0           0           0           0           0           0
           0           0           0           0
Num RLSW                                   I               41
RLSW                                       R   N=          41
  1.00000000E+00  1.00000000E+00  1.00000000E+00  1.00000000E+00  0.00000000E+00
  0.00000000E+00  0.00000000E+00  1.00000000E+00  0.00000000E+00  0.00000000E+00
  0.00000000E+00  0.00000000E+00  1.00000000E+00  0.00000000E+00  0.00000000E+00
  0.00000000E+00  0.00000000E+00  1.00000000E+00  0.00000000E+00  0.00000000E+00
  0.00000000E+00  0.00000000E+00  1.00000000E+00  0.00000000E+00  0.00000000E+00
  0.00000000E+00  0.00000000E+00  1.00000000E+00  0.00000000E+00  0.00000000E+00
  0.00000000E+00  0.00000000E+00  1.00000000E+00  0.00000000E+00  0.00000000E+00
  0.00000000E+00  0.00000000E+00  0.00000000E+00  1.00000000E+00  1.00000000E+00
  0.00000000E+00
ECP-MxAtEC                                 I           250000
ECP-MaxLECP                                I               10
ECP-MaxAtL                                 I          2250000
ECP-MxTECP                                 I         11250000
ECP-LenNCZ                                 I                0
ECP-KFirst                                 I   N=         100
           0           0           0           0           0           0
           0           0           0           0           0           0
           0           0           0           0           0           0
           0           0           0           0           0           0
           0           0           0           0           0           0
           0           0           0           0           0           0
           0           0           0           0           0           0
           0           0           0           0           0           0
           0           0           0           0           0           0
           0           0           0           0           0           0
           0           0           0           0           0           0
           0           0           0           0           0           0
           0           0           0           0           0           0
           0           0           0           0           0           0
           0           0           0           0           0           0
           0           0           0           0           0           0
           0           0           0           0
ECP-KLast                                  I   N=         100
           0           0           0           0           0           0
           0           0           0           0           0           0
           0           0           0           0           0           0
           0           0           0           0           0           0
           0           0           0           0           0           0
           0           0           0           0           0           0
           0           0           0           0           0           0
           0           0           0           0           0           0
           0           0           0           0           0           0
           0           0           0           0           0           0
           0           0           0           0           0           0
           0           0           0           0           0           0
           0           0           0           0           0           0
           0           0           0           0           0           0
           0           0           0           0           0           0
           0           0           0           0           0           0
           0           0           0           0
ECP-LMax                                   I   N=          10
           0           0           0           0           0           0
           0           0           0           0
ECP-LPSkip                                 I   N=          10
           1           1           1           1           1           1
           1           1           1           1
ECP-RNFroz                                 R   N=          10
  0.00000000E+00  0.00000000E+00  0.00000000E+00  0.00000000E+00  0.00000000E+00
  0.00000000E+00  0.00000000E+00  0.00000000E+00  0.00000000E+00  0.00000000E+00
ECP-NLP                                    I                0
ECP-CLP1                                   R      0.000000000000000E+00
ECP-CLP2                                   R      0.000000000000000E+00
ECP-ZLP                                    R      0.000000000000000E+00
MxBond                                     I                4
NBond                                      I   N=          10
           1           2           4           4           2           1
           1           1           1           1
IBond                                      I   N=          40
           2           0           0           0           1           3
           0           0           2           4           7           8
           3           5           9          10           4           6
           0           0           5           0           0           0
           3           0           0           0           3           0
           0           0           4           0           0           0
           4           0           0           0
RBond                                      R   N=          40
  3.00000000E+00  0.00000000E+00  0.00000000E+00  0.00000000E+00  3.00000000E+00
  1.00000000E+00  0.00000000E+00  0.00000000E+00  1.00000000E+00  1.00000000E+00
  1.00000000E+00  1.00000000E+00  1.00000000E+00  1.00000000E+00  1.00000000E+00
  1.00000000E+00  1.00000000E+00  3.00000000E+00  0.00000000E+00  0.00000000E+00
  3.00000000E+00  0.00000000E+00  0.00000000E+00  0.00000000E+00  1.00000000E+00
  0.00000000E+00  0.00000000E+00  0.00000000E+00  1.00000000E+00  0.00000000E+00
  0.00000000E+00  0.00000000E+00  1.00000000E+00  0.00000000E+00  0.00000000E+00
  0.00000000E+00  1.00000000E+00  0.00000000E+00  0.00000000E+00  0.00000000E+00
Virial Ratio                               R      2.004586743012464E+00
SCF Energy                                 R     -2.640761428888686E+02
Total Energy                               R     -2.640761428888686E+02
RMS Density                                R      5.900256598645017E-09
External E-field                           R   N=          35
  0.00000000E+00  0.00000000E+00  0.00000000E+00  0.00000000E+00  0.00000000E+00
  0.00000000E+00  0.00000000E+00  0.00000000E+00  0.00000000E+00  0.00000000E+00
  0.00000000E+00  0.00000000E+00  0.00000000E+00  0.00000000E+00  0.00000000E+00
  0.00000000E+00  0.00000000E+00  0.00000000E+00  0.00000000E+00  0.00000000E+00
  0.00000000E+00  0.00000000E+00  0.00000000E+00  0.00000000E+00  0.00000000E+00
  0.00000000E+00  0.00000000E+00  0.00000000E+00  0.00000000E+00  0.00000000E+00
  0.00000000E+00  0.00000000E+00  0.00000000E+00  0.00000000E+00  0.00000000E+00
IOpCl                                      I                0
IROHF                                      I                0
Alpha Orbital Energies                     R   N=         240
 -1.40053365E+01 -1.40027861E+01 -9.97359835E+00 -9.97139123E+00 -9.94621396E+00
 -9.94269206E+00 -8.53528416E-01 -8.45881688E-01 -7.86201584E-01 -6.75264150E-01
 -5.24426409E-01 -4.84643331E-01 -4.71089317E-01 -4.24640636E-01 -3.99400870E-01
 -3.35140798E-01 -3.28893618E-01 -3.26143576E-01 -3.16607457E-01 -3.14451651E-01
 -3.12041678E-01 -4.41608324E-02 -4.29446606E-02 -3.86439450E-02 -1.25853398E-02
  7.79160461E-03  2.42506096E-02  3.71696067E-02  5.54814516E-02  7.86001816E-02
  9.83831518E-02  1.17930072E-01  1.36305975E-01  1.61215693E-01  1.71135146E-01
  1.85281810E-01  1.97577434E-01  2.07781802E-01  2.21334052E-01  2.44100780E-01
  2.64671963E-01  2.95229581E-01  3.05726702E-01  3.13591791E-01  3.33185068E-01
  3.43911948E-01  3.45498293E-01  3.55272794E-01  3.83367921E-01  3.90785925E-01
  3.92506774E-01  4.41458242E-01  4.57655386E-01  4.64091292E-01  4.65125367E-01
  4.91067442E-01  5.36892483E-01  5.41781352E-01  5.62509196E-01  5.72825801E-01
  5.98256959E-01  6.16770646E-01  6.56464428E-01  6.68924573E-01  7.00552944E-01
  7.16158229E-01  7.46690462E-01  7.98305351E-01  8.01856865E-01  8.19059292E-01
  8.78031269E-01  9.11142443E-01  9.38539986E-01  9.63301096E-01  9.79314055E-01
  1.00040245E+00  1.02618144E+00  1.05098681E+00  1.07543711E+00  1.08038565E+00
  1.08174521E+00  1.08456767E+00  1.11937153E+00  1.12786094E+00  1.13585312E+00
  1.16008155E+00  1.17174993E+00  1.18084362E+00  1.20515686E+00  1.24600273E+00
  1.26211290E+00  1.30626929E+00  1.32925842E+00  1.34719777E+00  1.36910834E+00
  1.43700425E+00  1.50919652E+00  1.51508978E+00  1.54588330E+00  1.56530694E+00
  1.57122366E+00  1.63225758E+00  1.66531540E+00  1.67293489E+00  1.69072807E+00
  1.74708423E+00  1.77052806E+00  1.77387903E+00  1.79751605E+00  1.80880570E+00
  1.89297766E+00  1.93295704E+00  1.97056474E+00  2.06517329E+00  2.07773098E+00
  2.09791506E+00  2.11080670E+00  2.15646105E+00  2.16810873E+00  2.20122236E+00
  2.23002497E+00  2.28163908E+00  2.39402897E+00  2.41122965E+00  2.42043880E+00
  2.45275892E+00  2.48190272E+00  2.48996370E+00  2.53439966E+00  2.56083841E+00
  2.59486416E+00  2.61147904E+00  2.67629205E+00  2.67838717E+00  2.70912045E+00
  2.72659579E+00  2.73380910E+00  2.78862101E+00  2.79423612E+00  2.81773947E+00
  2.83411649E+00  2.86278096E+00  2.86310669E+00  2.86608915E+00  2.89897837E+00
  2.90566364E+00  2.91247758E+00  2.92575037E+00  2.92911537E+00  2.97615548E+00
  3.00613470E+00  3.00660151E+00  3.00803346E+00  3.00889513E+00  3.06611699E+00
  3.07683705E+00  3.10301507E+00  3.13944465E+00  3.16652924E+00  3.17334632E+00
  3.19636843E+00  3.21933106E+00  3.25030828E+00  3.29222083E+00  3.32777293E+00
  3.33587218E+00  3.36597439E+00  3.38647933E+00  3.39367015E+00  3.39911402E+00
  3.44686628E+00  3.46913488E+00  3.49188281E+00  3.49937514E+00  3.67718826E+00
  3.73710422E+00  3.74573159E+00  3.83286491E+00  3.85136219E+00  3.85705891E+00
  3.86342792E+00  3.89113064E+00  3.92777916E+00  3.93393102E+00  3.96707809E+00
  3.98332751E+00  4.08694756E+00  4.17247934E+00  4.24249767E+00  4.30003771E+00
  4.37078493E+00  4.39341364E+00  4.39667874E+00  4.42006169E+00  4.42103631E+00
  4.42985747E+00  4.43845908E+00  4.48172635E+00  4.48365037E+00  4.48555690E+00
  4.49266016E+00  4.50495275E+00  4.51748756E+00  4.53529652E+00  4.59701842E+00
  4.62645839E+00  4.65595496E+00  4.66339176E+00  4.66942801E+00  4.83819239E+00
  4.94579217E+00  4.99599736E+00  5.11673848E+00  5.13968816E+00  5.19894494E+00
  5.23252540E+00  5.31145597E+00  5.38960285E+00  5.77698547E+00  5.86829204E+00
  5.94951893E+00  5.95620483E+00  6.01164309E+00  6.09807290E+00  7.13821646E+00
  7.20646889E+00  7.43314410E+00  7.55106292E+00  7.98087607E+00  8.02985336E+00
  8.32665266E+00  8.38695916E+00  1.18004475E+01  1.18299234E+01  3.43444085E+01
  3.43971203E+01  3.45829384E+01  3.46413904E+01  5.12912202E+01  5.13189654E+01
Alpha MO coefficients                      R   N=       57600
  1.17758861E-06 -4.17683360E-07 -7.56018031E-06  2.76587935E-04  3.94950718E-04
 -2.07360031E-05  1.42039118E-06  1.25072035E-09  2.60779953E-04 -1.39619141E-05