qm7_0520                                                                
SP        RPBEPBE                                                     def2TZVP            
Number of atoms                            I               13
Info1-9                                    I   N=           9
          22          21           0           0           0         110
           1          18         902
Charge                                     I                0
Multiplicity                               I                1
Number of electrons                        I               44
Number of alpha electrons                  I               22
Number of beta electrons                   I               22
Number of basis functions                  I              258
Number of independent functions            I              258
Number of point charges in /Mol/           I                0
Number of translation vectors              I                0
Atomic numbers                             I   N=          13
           7           6           6           6           6           6
           1           1           1           1           1           1
           1
Nuclear charges                            R   N=          13
  7.00000000E+00  6.00000000E+00  6.00000000E+00  6.00000000E+00  6.00000000E+00
  6.00000000E+00  1.00000000E+00  1.00000000E+00  1.00000000E+00  1.00000000E+00
  1.00000000E+00  1.00000000E+00  1.00000000E+00
Current cartesian coordinates              R   N=          39
 -3.57403904E+00  9.44863066E-04 -8.17684498E-01 -1.40368857E+00 -3.77945227E-04
  8.48298061E-01  3.09537141E-01  2.19567279E+00  3.21064470E-01  2.61972734E+00
  1.36079179E+00 -3.21631388E-01  2.61500302E+00 -1.36268151E+00 -3.20875497E-01
  3.08214332E-01 -2.19472793E+00  3.20497552E-01 -4.65779697E+00  1.53861502E+00
 -4.26322216E-01 -4.66025362E+00 -1.53426865E+00 -4.24810435E-01 -2.00027511E+00
  0.00000000E+00  2.82986488E+00 -2.39995219E-01  4.15437393E+00  4.53156327E-01
  4.22864017E+00  2.51220192E+00 -8.08991757E-01  4.22580558E+00 -2.51428062E+00
 -8.08991757E-01 -2.40373164E-01 -4.15172831E+00  4.51833518E-01
Force Field                                I                0
Int Atom Types                             I   N=          13
           0           0           0           0           0           0
           0           0           0           0           0           0
           0
MM charges                                 R   N=          13
  0.00000000E+00  0.00000000E+00  0.00000000E+00  0.00000000E+00  0.00000000E+00
  0.00000000E+00  0.00000000E+00  0.00000000E+00  0.00000000E+00  0.00000000E+00
  0.00000000E+00  0.00000000E+00  0.00000000E+00
Integer atomic weights                     I   N=          13
          14          12          12          12          12          12
           1           1           1           1           1           1
           1
Real atomic weights                        R   N=          13
  1.40030740E+01  1.20000000E+01  1.20000000E+01  1.20000000E+01  1.20000000E+01
  1.20000000E+01  1.00782504E+00  1.00782504E+00  1.00782504E+00  1.00782504E+00
  1.00782504E+00  1.00782504E+00  1.00782504E+00
Atom fragment info                         I   N=          13
           0           0           0           0           0           0
           0           0           0           0           0           0
           0
Atom residue num                           I   N=          13
           0           0           0           0           0           0
           0           0           0           0           0           0
           0
Nuclear spins                              I   N=          13
           2           0           0           0           0           0
           1           1           1           1           1           1
           1
Nuclear ZEff                               R   N=          13
 -4.55000000E+00 -3.60000000E+00 -3.60000000E+00 -3.60000000E+00 -3.60000000E+00
 -3.60000000E+00 -1.00000000E+00 -1.00000000E+00 -1.00000000E+00 -1.00000000E+00
 -1.00000000E+00 -1.00000000E+00 -1.00000000E+00
Nuclear ZNuc                               R   N=          13
  7.00000000E+00  6.00000000E+00  6.00000000E+00  6.00000000E+00  6.00000000E+00
  6.00000000E+00  1.00000000E+00  1.00000000E+00  1.00000000E+00  1.00000000E+00
  1.00000000E+00  1.00000000E+00  1.00000000E+00
Nuclear QMom                               R   N=          13
  2.04400000E+00  0.00000000E+00  0.00000000E+00  0.00000000E+00  0.00000000E+00
  0.00000000E+00  0.00000000E+00  0.00000000E+00  0.00000000E+00  0.00000000E+00
  0.00000000E+00  0.00000000E+00  0.00000000E+00
Nuclear GFac                               R   N=          13
  4.03761000E-01  0.00000000E+00  0.00000000E+00  0.00000000E+00  0.00000000E+00
  0.00000000E+00  2.79284600E+00  2.79284600E+00  2.79284600E+00  2.79284600E+00
  2.79284600E+00  2.79284600E+00  2.79284600E+00
MicOpt                                     I   N=          13
          -1          -1          -1          -1          -1          -1
          -1          -1          -1          -1          -1          -1
          -1
Number of contracted shells                I               94
Number of primitive shells                 I              162
Pure/Cartesian d shells                    I                1
Pure/Cartesian f shells                    I                1
Highest angular momentum                   I                3
Largest degree of contraction              I                6
Shell types                                I   N=          94
           0           0           0           0           0           1
           1           1           2           2           3           0
           0           0           0           0           1           1
           1           2           2           3           0           0
           0           0           0           1           1           1
           2           2           3           0           0           0
           0           0           1           1           1           2
           2           3           0           0           0           0
           0           1           1           1           2           2
           3           0           0           0           0           0
           1           1           1           2           2           3
           0           0           0           1           0           0
           0           1           0           0           0           1
           0           0           0           1           0           0
           0           1           0           0           0           1
           0           0           0           1
Number of primitives per shell             I   N=          94
           6           2           1           1           1           4
           1           1           1           1           1           6
           2           1           1           1           4           1
           1           1           1           1           6           2
           1           1           1           4           1           1
           1           1           1           6           2           1
           1           1           4           1           1           1
           1           1           6           2           1           1
           1           4           1           1           1           1
           1           6           2           1           1           1
           4           1           1           1           1           1
           3           1           1           1           3           1
           1           1           3           1           1           1
           3           1           1           1           3           1
           1           1           3           1           1           1
           3           1           1           1
Shell to atom map                          I   N=          94
           1           1           1           1           1           1
           1           1           1           1           1           2
           2           2           2           2           2           2
           2           2           2           2           3           3
           3           3           3           3           3           3
           3           3           3           4           4           4
           4           4           4           4           4           4
           4           4           5           5           5           5
           5           5           5           5           5           5
           5           6           6           6           6           6
           6           6           6           6           6           6
           7           7           7           7           8           8
           8           8           9           9           9           9
          10          10          10          10          11          11
          11          11          12          12          12          12
          13          13          13          13
Primitive exponents                        R   N=         162
  1.97308006E+04  2.95789587E+03  6.73221336E+02  1.90682495E+02  6.22954419E+01
  2.26541612E+01  8.97914774E+00  3.68630024E+00  8.46600768E-01  3.36471338E-01
  1.36476537E-01  4.92003805E+01  1.13467905E+01  3.42739724E+00  1.17855251E+00
  4.16422050E-01  1.42608260E-01  1.65400000E+00  4.69000000E-01  1.09300000E+00
  1.35753497E+04  2.03523337E+03  4.63225624E+02  1.31200196E+02  4.28530159E+01
  1.55841858E+01  6.20671385E+00  2.57648965E+00  5.76963394E-01  2.29728314E-01
  9.51644400E-02  3.46972322E+01  7.95826228E+00  2.37808269E+00  8.14332082E-01
  2.88875473E-01  1.00568237E-01  1.09700000E+00  3.18000000E-01  7.61000000E-01
  1.35753497E+04  2.03523337E+03  4.63225624E+02  1.31200196E+02  4.28530159E+01
  1.55841858E+01  6.20671385E+00  2.57648965E+00  5.76963394E-01  2.29728314E-01
  9.51644400E-02  3.46972322E+01  7.95826228E+00  2.37808269E+00  8.14332082E-01
  2.88875473E-01  1.00568237E-01  1.09700000E+00  3.18000000E-01  7.61000000E-01
  1.35753497E+04  2.03523337E+03  4.63225624E+02  1.31200196E+02  4.28530159E+01
  1.55841858E+01  6.20671385E+00  2.57648965E+00  5.76963394E-01  2.29728314E-01
  9.51644400E-02  3.46972322E+01  7.95826228E+00  2.37808269E+00  8.14332082E-01
  2.88875473E-01  1.00568237E-01  1.09700000E+00  3.18000000E-01  7.61000000E-01
  1.35753497E+04  2.03523337E+03  4.63225624E+02  1.31200196E+02  4.28530159E+01
  1.55841858E+01  6.20671385E+00  2.57648965E+00  5.76963394E-01  2.29728314E-01
  9.51644400E-02  3.46972322E+01  7.95826228E+00  2.37808269E+00  8.14332082E-01
  2.88875473E-01  1.00568237E-01  1.09700000E+00  3.18000000E-01  7.61000000E-01
  1.35753497E+04  2.03523337E+03  4.63225624E+02  1.31200196E+02  4.28530159E+01
  1.55841858E+01  6.20671385E+00  2.57648965E+00  5.76963394E-01  2.29728314E-01
  9.51644400E-02  3.46972322E+01  7.95826228E+00  2.37808269E+00  8.14332082E-01
  2.88875473E-01  1.00568237E-01  1.09700000E+00  3.18000000E-01  7.61000000E-01
  3.40613410E+01  5.12357460E+00  1.16466260E+00  3.27230410E-01  1.03072410E-01
  8.00000000E-01  3.40613410E+01  5.12357460E+00  1.16466260E+00  3.27230410E-01
  1.03072410E-01  8.00000000E-01  3.40613410E+01  5.12357460E+00  1.16466260E+00
  3.27230410E-01  1.03072410E-01  8.00000000E-01  3.40613410E+01  5.12357460E+00
  1.16466260E+00  3.27230410E-01  1.03072410E-01  8.00000000E-01  3.40613410E+01
  5.12357460E+00  1.16466260E+00  3.27230410E-01  1.03072410E-01  8.00000000E-01
  3.40613410E+01  5.12357460E+00  1.16466260E+00  3.27230410E-01  1.03072410E-01
  8.00000000E-01  3.40613410E+01  5.12357460E+00  1.16466260E+00  3.27230410E-01
  1.03072410E-01  8.00000000E-01
Contraction coefficients                   R   N=         162
  5.86264026E-04  4.54288206E-03  2.35584135E-02  9.47091933E-02  2.97197849E-01
  6.69162469E-01  6.45966836E-01  3.87005744E-01  1.00000000E+00  1.00000000E+00
  1.00000000E+00  1.14488251E-02  7.84223380E-02  3.08180947E-01  7.20271964E-01
  1.00000000E+00  1.00000000E+00  1.00000000E+00  1.00000000E+00  1.00000000E+00
  6.06455036E-04  4.69790889E-03  2.43324776E-02  9.73999683E-02  3.01955843E-01
  6.62336091E-01  6.55953085E-01  3.75856333E-01  1.00000000E+00  1.00000000E+00
  1.00000000E+00  1.13272200E-02  7.61696592E-02  3.01922522E-01  7.27850273E-01
  1.00000000E+00  1.00000000E+00  1.00000000E+00  1.00000000E+00  1.00000000E+00
  6.06455036E-04  4.69790889E-03  2.43324776E-02  9.73999683E-02  3.01955843E-01
  6.62336091E-01  6.55953085E-01  3.75856333E-01  1.00000000E+00  1.00000000E+00
  1.00000000E+00  1.13272200E-02  7.61696592E-02  3.01922522E-01  7.27850273E-01
  1.00000000E+00  1.00000000E+00  1.00000000E+00  1.00000000E+00  1.00000000E+00
  6.06455036E-04  4.69790889E-03  2.43324776E-02  9.73999683E-02  3.01955843E-01
  6.62336091E-01  6.55953085E-01  3.75856333E-01  1.00000000E+00  1.00000000E+00
  1.00000000E+00  1.13272200E-02  7.61696592E-02  3.01922522E-01  7.27850273E-01
  1.00000000E+00  1.00000000E+00  1.00000000E+00  1.00000000E+00  1.00000000E+00
  6.06455036E-04  4.69790889E-03  2.43324776E-02  9.73999683E-02  3.01955843E-01
  6.62336091E-01  6.55953085E-01  3.75856333E-01  1.00000000E+00  1.00000000E+00
  1.00000000E+00  1.13272200E-02  7.61696592E-02  3.01922522E-01  7.27850273E-01
  1.00000000E+00  1.00000000E+00  1.00000000E+00  1.00000000E+00  1.00000000E+00
  6.06455036E-04  4.69790889E-03  2.43324776E-02  9.73999683E-02  3.01955843E-01
  6.62336091E-01  6.55953085E-01  3.75856333E-01  1.00000000E+00  1.00000000E+00
  1.00000000E+00  1.13272200E-02  7.61696592E-02  3.01922522E-01  7.27850273E-01
  1.00000000E+00  1.00000000E+00  1.00000000E+00  1.00000000E+00  1.00000000E+00
  2.54393072E-02  1.90085949E-01  8.52441130E-01  1.00000000E+00  1.00000000E+00
  1.00000000E+00  2.54393072E-02  1.90085949E-01  8.52441130E-01  1.00000000E+00
  1.00000000E+00  1.00000000E+00  2.54393072E-02  1.90085949E-01  8.52441130E-01
  1.00000000E+00  1.00000000E+00  1.00000000E+00  2.54393072E-02  1.90085949E-01
  8.52441130E-01  1.00000000E+00  1.00000000E+00  1.00000000E+00  2.54393072E-02
  1.90085949E-01  8.52441130E-01  1.00000000E+00  1.00000000E+00  1.00000000E+00
  2.54393072E-02  1.90085949E-01  8.52441130E-01  1.00000000E+00  1.00000000E+00
  1.00000000E+00  2.54393072E-02  1.90085949E-01  8.52441130E-01  1.00000000E+00
  1.00000000E+00  1.00000000E+00
Coordinates of each shell                  R   N=         282
 -3.57403904E+00  9.44863066E-04 -8.17684498E-01 -3.57403904E+00  9.44863066E-04
 -8.17684498E-01 -3.57403904E+00  9.44863066E-04 -8.17684498E-01 -3.57403904E+00
  9.44863066E-04 -8.17684498E-01 -3.57403904E+00  9.44863066E-04 -8.17684498E-01
 -3.57403904E+00  9.44863066E-04 -8.17684498E-01 -3.57403904E+00  9.44863066E-04
 -8.17684498E-01 -3.57403904E+00  9.44863066E-04 -8.17684498E-01 -3.57403904E+00
  9.44863066E-04 -8.17684498E-01 -3.57403904E+00  9.44863066E-04 -8.17684498E-01
 -3.57403904E+00  9.44863066E-04 -8.17684498E-01 -1.40368857E+00 -3.77945227E-04
  8.48298061E-01 -1.40368857E+00 -3.77945227E-04  8.48298061E-01 -1.40368857E+00
 -3.77945227E-04  8.48298061E-01 -1.40368857E+00 -3.77945227E-04  8.48298061E-01
 -1.40368857E+00 -3.77945227E-04  8.48298061E-01 -1.40368857E+00 -3.77945227E-04
  8.48298061E-01 -1.40368857E+00 -3.77945227E-04  8.48298061E-01 -1.40368857E+00
 -3.77945227E-04  8.48298061E-01 -1.40368857E+00 -3.77945227E-04  8.48298061E-01
 -1.40368857E+00 -3.77945227E-04  8.48298061E-01 -1.40368857E+00 -3.77945227E-04
  8.48298061E-01  3.09537141E-01  2.19567279E+00  3.21064470E-01  3.09537141E-01
  2.19567279E+00  3.21064470E-01  3.09537141E-01  2.19567279E+00  3.21064470E-01
  3.09537141E-01  2.19567279E+00  3.21064470E-01  3.09537141E-01  2.19567279E+00
  3.21064470E-01  3.09537141E-01  2.19567279E+00  3.21064470E-01  3.09537141E-01
  2.19567279E+00  3.21064470E-01  3.09537141E-01  2.19567279E+00  3.21064470E-01
  3.09537141E-01  2.19567279E+00  3.21064470E-01  3.09537141E-01  2.19567279E+00
  3.21064470E-01  3.09537141E-01  2.19567279E+00  3.21064470E-01  2.61972734E+00
  1.36079179E+00 -3.21631388E-01  2.61972734E+00  1.36079179E+00 -3.21631388E-01
  2.61972734E+00  1.36079179E+00 -3.21631388E-01  2.61972734E+00  1.36079179E+00
 -3.21631388E-01  2.61972734E+00  1.36079179E+00 -3.21631388E-01  2.61972734E+00
  1.36079179E+00 -3.21631388E-01  2.61972734E+00  1.36079179E+00 -3.21631388E-01
  2.61972734E+00  1.36079179E+00 -3.21631388E-01  2.61972734E+00  1.36079179E+00
 -3.21631388E-01  2.61972734E+00  1.36079179E+00 -3.21631388E-01  2.61972734E+00
  1.36079179E+00 -3.21631388E-01  2.61500302E+00 -1.36268151E+00 -3.20875497E-01
  2.61500302E+00 -1.36268151E+00 -3.20875497E-01  2.61500302E+00 -1.36268151E+00
 -3.20875497E-01  2.61500302E+00 -1.36268151E+00 -3.20875497E-01  2.61500302E+00
 -1.36268151E+00 -3.20875497E-01  2.61500302E+00 -1.36268151E+00 -3.20875497E-01
  2.61500302E+00 -1.36268151E+00 -3.20875497E-01  2.61500302E+00 -1.36268151E+00
 -3.20875497E-01  2.61500302E+00 -1.36268151E+00 -3.20875497E-01  2.61500302E+00
 -1.36268151E+00 -3.20875497E-01  2.61500302E+00 -1.36268151E+00 -3.20875497E-01
  3.08214332E-01 -2.19472793E+00  3.20497552E-01  3.08214332E-01 -2.19472793E+00
  3.20497552E-01  3.08214332E-01 -2.19472793E+00  3.20497552E-01  3.08214332E-01
 -2.19472793E+00  3.20497552E-01  3.08214332E-01 -2.19472793E+00  3.20497552E-01
  3.08214332E-01 -2.19472793E+00  3.20497552E-01  3.08214332E-01 -2.19472793E+00
  3.20497552E-01  3.08214332E-01 -2.19472793E+00  3.20497552E-01  3.08214332E-01
 -2.19472793E+00  3.20497552E-01  3.08214332E-01 -2.19472793E+00  3.20497552E-01
  3.08214332E-01 -2.19472793E+00  3.20497552E-01 -4.65779697E+00  1.53861502E+00
 -4.26322216E-01 -4.65779697E+00  1.53861502E+00 -4.26322216E-01 -4.65779697E+00
  1.53861502E+00 -4.26322216E-01 -4.65779697E+00  1.53861502E+00 -4.26322216E-01
 -4.66025362E+00 -1.53426865E+00 -4.24810435E-01 -4.66025362E+00 -1.53426865E+00
 -4.24810435E-01 -4.66025362E+00 -1.53426865E+00 -4.24810435E-01 -4.66025362E+00
 -1.53426865E+00 -4.24810435E-01 -2.00027511E+00  0.00000000E+00  2.82986488E+00
 -2.00027511E+00  0.00000000E+00  2.82986488E+00 -2.00027511E+00  0.00000000E+00
  2.82986488E+00 -2.00027511E+00  0.00000000E+00  2.82986488E+00 -2.39995219E-01
  4.15437393E+00  4.53156327E-01 -2.39995219E-01  4.15437393E+00  4.53156327E-01
 -2.39995219E-01  4.15437393E+00  4.53156327E-01 -2.39995219E-01  4.15437393E+00
  4.53156327E-01  4.22864017E+00  2.51220192E+00 -8.08991757E-01  4.22864017E+00
  2.51220192E+00 -8.08991757E-01  4.22864017E+00  2.51220192E+00 -8.08991757E-01
  4.22864017E+00  2.51220192E+00 -8.08991757E-01  4.22580558E+00 -2.51428062E+00
 -8.08991757E-01  4.22580558E+00 -2.51428062E+00 -8.08991757E-01  4.22580558E+00
 -2.51428062E+00 -8.08991757E-01  4.22580558E+00 -2.51428062E+00 -8.08991757E-01
 -2.40373164E-01 -4.15172831E+00  4.51833518E-01 -2.40373164E-01 -4.15172831E+00
  4.51833518E-01 -2.40373164E-01 -4.15172831E+00  4.51833518E-01 -2.40373164E-01
 -4.15172831E+00  4.51833518E-01
Constraint Structure                       R   N=          39
 -3.57403904E+00  9.44863066E-04 -8.17684498E-01 -1.40368857E+00 -3.77945227E-04
  8.48298061E-01  3.09537141E-01  2.19567279E+00  3.21064470E-01  2.61972734E+00
  1.36079179E+00 -3.21631388E-01  2.61500302E+00 -1.36268151E+00 -3.20875497E-01
  3.08214332E-01 -2.19472793E+00  3.20497552E-01 -4.65779697E+00  1.53861502E+00
 -4.26322216E-01 -4.66025362E+00 -1.53426865E+00 -4.24810435E-01 -2.00027511E+00
  0.00000000E+00  2.82986488E+00 -2.39995219E-01  4.15437393E+00  4.53156327E-01
  4.22864017E+00  2.51220192E+00 -8.08991757E-01  4.22580558E+00 -2.51428062E+00
 -8.08991757E-01 -2.40373164E-01 -4.15172831E+00  4.51833518E-01
Num ILSW                                   I              100
ILSW                                       I   N=         100
           0           1           0           0           2           0
           0           0           0           0        1009          -1
           5           0           0           1           0           0
           0           0           1           0           0           0
           1           1           0           0           0           0
           0           0      100000           0          -1           0
           0           0           0           0           0           0
           0           0           0           1           0           0
           0           0           1           0           0           0
           0           0           4          41           0           0
           0           0           0           0           0           0
           0           0           0           0           0           0
           0           0           0           0           0           0
           0           0           0           0           0           0
           0           0           0           0           0           0
           0           0           0           0           0           0
           0           0           0           0
Num RLSW                                   I               41
RLSW                                       R   N=          41
  1.00000000E+00  1.00000000E+00  1.00000000E+00  1.00000000E+00  0.00000000E+00
  0.00000000E+00  0.00000000E+00  1.00000000E+00  0.00000000E+00  0.00000000E+00
  0.00000000E+00  0.00000000E+00  1.00000000E+00  0.00000000E+00  0.00000000E+00
  0.00000000E+00  0.00000000E+00  1.00000000E+00  0.00000000E+00  0.00000000E+00
  0.00000000E+00  0.00000000E+00  1.00000000E+00  0.00000000E+00  0.00000000E+00
  0.00000000E+00  0.00000000E+00  1.00000000E+00  0.00000000E+00  0.00000000E+00
  0.00000000E+00  0.00000000E+00  1.00000000E+00  0.00000000E+00  0.00000000E+00
  0.00000000E+00  0.00000000E+00  0.00000000E+00  1.00000000E+00  1.00000000E+00
  0.00000000E+00
ECP-MxAtEC                                 I           250000
ECP-MaxLECP                                I               10
ECP-MaxAtL                                 I          2250000
ECP-MxTECP                                 I         11250000
ECP-LenNCZ                                 I                0
ECP-KFirst                                 I   N=         130
           0           0           0           0           0           0
           0           0           0           0           0           0
           0           0           0           0           0           0
           0           0           0           0           0           0
           0           0           0           0           0           0
           0           0           0           0           0           0
           0           0           0           0           0           0
           0           0           0           0           0           0
           0           0           0           0           0           0
           0           0           0           0           0           0
           0           0           0           0           0           0
           0           0           0           0           0           0
           0           0           0           0           0           0
           0           0           0           0           0           0
           0           0           0           0           0           0
           0           0           0           0           0           0
           0           0           0           0           0           0
           0           0           0           0           0           0
           0           0           0           0           0           0
           0           0           0           0           0           0
           0           0           0           0           0           0
           0           0           0           0
ECP-KLast                                  I   N=         130
           0           0           0           0           0           0
           0           0           0           0           0           0
           0           0           0           0           0           0
           0           0           0           0           0           0
           0           0           0           0           0           0
           0           0           0           0           0           0
           0           0           0           0           0           0
           0           0           0           0           0           0
           0           0           0           0           0           0
           0           0           0           0           0           0
           0           0           0           0           0           0
           0           0           0           0           0           0
           0           0           0           0           0           0
           0           0           0           0           0           0
           0           0           0           0           0           0
           0           0           0           0           0           0
           0           0           0           0           0           0
           0           0           0           0           0           0
           0           0           0           0           0           0
           0           0           0           0           0           0
           0           0           0           0           0           0
           0           0           0           0
ECP-LMax                                   I   N=          13
           0           0           0           0           0           0
           0           0           0           0           0           0
           0
ECP-LPSkip                                 I   N=          13
           1           1           1           1           1           1
           1           1           1           1           1           1
           1
ECP-RNFroz                                 R   N=          13
  0.00000000E+00  0.00000000E+00  0.00000000E+00  0.00000000E+00  0.00000000E+00
  0.00000000E+00  0.00000000E+00  0.00000000E+00  0.00000000E+00  0.00000000E+00
  0.00000000E+00  0.00000000E+00  0.00000000E+00
ECP-NLP                                    I                0
ECP-CLP1                                   R      0.000000000000000E+00
ECP-CLP2                                   R      0.000000000000000E+00
ECP-ZLP                                    R      0.000000000000000E+00
MxBond                                     I                4
NBond                                      I   N=          13
           3           4           3           3           3           3
           1           1           1           1           1           1
           1
IBond                                      I   N=          52
           2           7           8           0           1           3
           6           9           2           4          10           0
           3           5          11           0           4           6
          12           0           2           5          13           0
           1           0           0           0           1           0
           0           0           2           0           0           0
           3           0           0           0           4           0
           0           0           5           0           0           0
           6           0           0           0
RBond                                      R   N=          52
  1.00000000E+00  1.00000000E+00  1.00000000E+00  0.00000000E+00  1.00000000E+00
  1.00000000E+00  1.00000000E+00  1.00000000E+00  1.00000000E+00  2.00000000E+00
  1.00000000E+00  0.00000000E+00  2.00000000E+00  1.00000000E+00  1.00000000E+00
  0.00000000E+00  1.00000000E+00  2.00000000E+00  1.00000000E+00  0.00000000E+00
  1.00000000E+00  2.00000000E+00  1.00000000E+00  0.00000000E+00  1.00000000E+00
  0.00000000E+00  0.00000000E+00  0.00000000E+00  1.00000000E+00  0.00000000E+00
  0.00000000E+00  0.00000000E+00  1.00000000E+00  0.00000000E+00  0.00000000E+00
  0.00000000E+00  1.00000000E+00  0.00000000E+00  0.00000000E+00  0.00000000E+00
  1.00000000E+00  0.00000000E+00  0.00000000E+00  0.00000000E+00  1.00000000E+00
  0.00000000E+00  0.00000000E+00  0.00000000E+00  1.00000000E+00  0.00000000E+00
  0.00000000E+00  0.00000000E+00
Virial Ratio                               R      2.004321115471792E+00
SCF Energy                                 R     -2.492108148812223E+02
Total Energy                               R     -2.492108148812223E+02
RMS Density                                R      9.914639891035522E-09
External E-field                           R   N=          35
  0.00000000E+00  0.00000000E+00  0.00000000E+00  0.00000000E+00  0.00000000E+00
  0.00000000E+00  0.00000000E+00  0.00000000E+00  0.00000000E+00  0.00000000E+00
  0.00000000E+00  0.00000000E+00  0.00000000E+00  0.00000000E+00  0.00000000E+00
  0.00000000E+00  0.00000000E+00  0.00000000E+00  0.00000000E+00  0.00000000E+00
  0.00000000E+00  0.00000000E+00  0.00000000E+00  0.00000000E+00  0.00000000E+00
  0.00000000E+00  0.00000000E+00  0.00000000E+00  0.00000000E+00  0.00000000E+00
  0.00000000E+00  0.00000000E+00  0.00000000E+00  0.00000000E+00  0.00000000E+00
IOpCl                                      I                0
IROHF                                      I                0
Alpha Orbital Energies                     R   N=         258
 -1.39735459E+01 -9.91766160E+00 -9.88229909E+00 -9.88196542E+00 -9.87938595E+00
 -9.87890611E+00 -8.28935921E-01 -7.62025105E-01 -6.37316523E-01 -6.14827012E-01
 -4.92642705E-01 -4.88730852E-01 -4.63530727E-01 -4.25180140E-01 -4.18669652E-01
 -3.47757725E-01 -3.39516707E-01 -3.22073065E-01 -3.07755106E-01 -2.84649724E-01
 -2.02959648E-01 -1.93335044E-01 -6.53208112E-02  1.73344972E-02  3.29140600E-02