qm7_1138                                                                
SP        RPBEPBE                                                     def2TZVP            
Number of atoms                            I               11
Info1-9                                    I   N=           9
          20          19           0           0           0         110
           1          18         902
Charge                                     I                0
Multiplicity                               I                1
Number of electrons                        I               44
Number of alpha electrons                  I               22
Number of beta electrons                   I               22
Number of basis functions                  I              246
Number of independent functions            I              246
Number of point charges in /Mol/           I                0
Number of translation vectors              I                0
Atomic numbers                             I   N=          11
           8           6           7           6           6           6
           1           1           1           1           1
Nuclear charges                            R   N=          11
  8.00000000E+00  6.00000000E+00  7.00000000E+00  6.00000000E+00  6.00000000E+00
  6.00000000E+00  1.00000000E+00  1.00000000E+00  1.00000000E+00  1.00000000E+00
  1.00000000E+00
Current cartesian coordinates              R   N=          33
  4.52797279E+00  9.85114233E-01 -3.17473990E-02  3.32478416E+00 -9.88137795E-01
 -7.36993192E-03  7.49087439E-01 -1.17219712E+00  2.00310970E-02 -8.12015319E-01
  1.05881355E+00  4.76210985E-02 -3.45082889E+00  3.65473034E-01  1.32280829E-03
 -5.62571470E+00 -2.05791176E-01 -3.68496596E-02  4.24149031E+00 -2.85953358E+00
 -3.96842488E-03 -7.63449358E-02 -2.89373763E+00  8.37148677E-02 -3.49032417E-01
  2.14446122E+00  1.74818565E+00 -3.08781250E-01  2.22212896E+00 -1.58888173E+00
 -7.57610104E+00 -7.07891409E-01 -7.19985657E-02
Force Field                                I                0
Int Atom Types                             I   N=          11
           0           0           0           0           0           0
           0           0           0           0           0
MM charges                                 R   N=          11
  0.00000000E+00  0.00000000E+00  0.00000000E+00  0.00000000E+00  0.00000000E+00
  0.00000000E+00  0.00000000E+00  0.00000000E+00  0.00000000E+00  0.00000000E+00
  0.00000000E+00
Integer atomic weights                     I   N=          11
          16          12          14          12          12          12
           1           1           1           1           1
Real atomic weights                        R   N=          11
  1.59949146E+01  1.20000000E+01  1.40030740E+01  1.20000000E+01  1.20000000E+01
  1.20000000E+01  1.00782504E+00  1.00782504E+00  1.00782504E+00  1.00782504E+00
  1.00782504E+00
Atom fragment info                         I   N=          11
           0           0           0           0           0           0
           0           0           0           0           0
Atom residue num                           I   N=          11
           0           0           0           0           0           0
           0           0           0           0           0
Nuclear spins                              I   N=          11
           0           0           2           0           0           0
           1           1           1           1           1
Nuclear ZEff                               R   N=          11
 -5.60000000E+00 -3.60000000E+00 -4.55000000E+00 -3.60000000E+00 -3.60000000E+00
 -3.60000000E+00 -1.00000000E+00 -1.00000000E+00 -1.00000000E+00 -1.00000000E+00
 -1.00000000E+00
Nuclear ZNuc                               R   N=          11
  8.00000000E+00  6.00000000E+00  7.00000000E+00  6.00000000E+00  6.00000000E+00
  6.00000000E+00  1.00000000E+00  1.00000000E+00  1.00000000E+00  1.00000000E+00
  1.00000000E+00
Nuclear QMom                               R   N=          11
  0.00000000E+00  0.00000000E+00  2.04400000E+00  0.00000000E+00  0.00000000E+00
  0.00000000E+00  0.00000000E+00  0.00000000E+00  0.00000000E+00  0.00000000E+00
  0.00000000E+00
Nuclear GFac                               R   N=          11
  0.00000000E+00  0.00000000E+00  4.03761000E-01  0.00000000E+00  0.00000000E+00
  0.00000000E+00  2.79284600E+00  2.79284600E+00  2.79284600E+00  2.79284600E+00
  2.79284600E+00
MicOpt                                     I   N=          11
          -1          -1          -1          -1          -1          -1
          -1          -1          -1          -1          -1
Number of contracted shells                I               86
Number of primitive shells                 I              150
Pure/Cartesian d shells                    I                1
Pure/Cartesian f shells                    I                1
Highest angular momentum                   I                3
Largest degree of contraction              I                6
Shell types                                I   N=          86
           0           0           0           0           0           1
           1           1           2           2           3           0
           0           0           0           0           1           1
           1           2           2           3           0           0
           0           0           0           1           1           1
           2           2           3           0           0           0
           0           0           1           1           1           2
           2           3           0           0           0           0
           0           1           1           1           2           2
           3           0           0           0           0           0
           1           1           1           2           2           3
           0           0           0           1           0           0
           0           1           0           0           0           1
           0           0           0           1           0           0
           0           1
Number of primitives per shell             I   N=          86
           6           2           1           1           1           4
           1           1           1           1           1           6
           2           1           1           1           4           1
           1           1           1           1           6           2
           1           1           1           4           1           1
           1           1           1           6           2           1
           1           1           4           1           1           1
           1           1           6           2           1           1
           1           4           1           1           1           1
           1           6           2           1           1           1
           4           1           1           1           1           1
           3           1           1           1           3           1
           1           1           3           1           1           1
           3           1           1           1           3           1
           1           1
Shell to atom map                          I   N=          86
           1           1           1           1           1           1
           1           1           1           1           1           2
           2           2           2           2           2           2
           2           2           2           2           3           3
           3           3           3           3           3           3
           3           3           3           4           4           4
           4           4           4           4           4           4
           4           4           5           5           5           5
           5           5           5           5           5           5
           5           6           6           6           6           6
           6           6           6           6           6           6
           7           7           7           7           8           8
           8           8           9           9           9           9
          10          10          10          10          11          11
          11          11
Primitive exponents                        R   N=         150
  2.70323826E+04  4.05238714E+03  9.22327227E+02  2.61240710E+02  8.53546414E+01
  3.10350352E+01  1.22608607E+01  4.99870760E+00  1.17031082E+00  4.64747410E-01
  1.85045364E-01  6.32749548E+01  1.46270494E+01  4.45012235E+00  1.52757996E+00
  5.29351179E-01  1.74784213E-01  2.31400000E+00  6.45000000E-01  1.42800000E+00
  1.35753497E+04  2.03523337E+03  4.63225624E+02  1.31200196E+02  4.28530159E+01
  1.55841858E+01  6.20671385E+00  2.57648965E+00  5.76963394E-01  2.29728314E-01
  9.51644400E-02  3.46972322E+01  7.95826228E+00  2.37808269E+00  8.14332082E-01
  2.88875473E-01  1.00568237E-01  1.09700000E+00  3.18000000E-01  7.61000000E-01
  1.97308006E+04  2.95789587E+03  6.73221336E+02  1.90682495E+02  6.22954419E+01
  2.26541612E+01  8.97914774E+00  3.68630024E+00  8.46600768E-01  3.36471338E-01
  1.36476537E-01  4.92003805E+01  1.13467905E+01  3.42739724E+00  1.17855251E+00
  4.16422050E-01  1.42608260E-01  1.65400000E+00  4.69000000E-01  1.09300000E+00
  1.35753497E+04  2.03523337E+03  4.63225624E+02  1.31200196E+02  4.28530159E+01
  1.55841858E+01  6.20671385E+00  2.57648965E+00  5.76963394E-01  2.29728314E-01
  9.51644400E-02  3.46972322E+01  7.95826228E+00  2.37808269E+00  8.14332082E-01
  2.88875473E-01  1.00568237E-01  1.09700000E+00  3.18000000E-01  7.61000000E-01
  1.35753497E+04  2.03523337E+03  4.63225624E+02  1.31200196E+02  4.28530159E+01
  1.55841858E+01  6.20671385E+00  2.57648965E+00  5.76963394E-01  2.29728314E-01
  9.51644400E-02  3.46972322E+01  7.95826228E+00  2.37808269E+00  8.14332082E-01
  2.88875473E-01  1.00568237E-01  1.09700000E+00  3.18000000E-01  7.61000000E-01
  1.35753497E+04  2.03523337E+03  4.63225624E+02  1.31200196E+02  4.28530159E+01
  1.55841858E+01  6.20671385E+00  2.57648965E+00  5.76963394E-01  2.29728314E-01
  9.51644400E-02  3.46972322E+01  7.95826228E+00  2.37808269E+00  8.14332082E-01
  2.88875473E-01  1.00568237E-01  1.09700000E+00  3.18000000E-01  7.61000000E-01
  3.40613410E+01  5.12357460E+00  1.16466260E+00  3.27230410E-01  1.03072410E-01
  8.00000000E-01  3.40613410E+01  5.12357460E+00  1.16466260E+00  3.27230410E-01
  1.03072410E-01  8.00000000E-01  3.40613410E+01  5.12357460E+00  1.16466260E+00
  3.27230410E-01  1.03072410E-01  8.00000000E-01  3.40613410E+01  5.12357460E+00
  1.16466260E+00  3.27230410E-01  1.03072410E-01  8.00000000E-01  3.40613410E+01
  5.12357460E+00  1.16466260E+00  3.27230410E-01  1.03072410E-01  8.00000000E-01
Contraction coefficients                   R   N=         150
  5.72273352E-04  4.43532335E-03  2.30201077E-02  9.28224907E-02  2.93785000E-01
  6.74016045E-01  6.38399370E-01  3.95345871E-01  1.00000000E+00  1.00000000E+00
  1.00000000E+00  1.20183322E-02  8.30054218E-02  3.19917439E-01  7.07155429E-01
  1.00000000E+00  1.00000000E+00  1.00000000E+00  1.00000000E+00  1.00000000E+00
  6.06455036E-04  4.69790889E-03  2.43324776E-02  9.73999683E-02  3.01955843E-01
  6.62336091E-01  6.55953085E-01  3.75856333E-01  1.00000000E+00  1.00000000E+00
  1.00000000E+00  1.13272200E-02  7.61696592E-02  3.01922522E-01  7.27850273E-01
  1.00000000E+00  1.00000000E+00  1.00000000E+00  1.00000000E+00  1.00000000E+00
  5.86264026E-04  4.54288206E-03  2.35584135E-02  9.47091933E-02  2.97197849E-01
  6.69162469E-01  6.45966836E-01  3.87005744E-01  1.00000000E+00  1.00000000E+00
  1.00000000E+00  1.14488251E-02  7.84223380E-02  3.08180947E-01  7.20271964E-01
  1.00000000E+00  1.00000000E+00  1.00000000E+00  1.00000000E+00  1.00000000E+00
  6.06455036E-04  4.69790889E-03  2.43324776E-02  9.73999683E-02  3.01955843E-01
  6.62336091E-01  6.55953085E-01  3.75856333E-01  1.00000000E+00  1.00000000E+00
  1.00000000E+00  1.13272200E-02  7.61696592E-02  3.01922522E-01  7.27850273E-01
  1.00000000E+00  1.00000000E+00  1.00000000E+00  1.00000000E+00  1.00000000E+00
  6.06455036E-04  4.69790889E-03  2.43324776E-02  9.73999683E-02  3.01955843E-01
  6.62336091E-01  6.55953085E-01  3.75856333E-01  1.00000000E+00  1.00000000E+00
  1.00000000E+00  1.13272200E-02  7.61696592E-02  3.01922522E-01  7.27850273E-01
  1.00000000E+00  1.00000000E+00  1.00000000E+00  1.00000000E+00  1.00000000E+00
  6.06455036E-04  4.69790889E-03  2.43324776E-02  9.73999683E-02  3.01955843E-01
  6.62336091E-01  6.55953085E-01  3.75856333E-01  1.00000000E+00  1.00000000E+00
  1.00000000E+00  1.13272200E-02  7.61696592E-02  3.01922522E-01  7.27850273E-01
  1.00000000E+00  1.00000000E+00  1.00000000E+00  1.00000000E+00  1.00000000E+00
  2.54393072E-02  1.90085949E-01  8.52441130E-01  1.00000000E+00  1.00000000E+00
  1.00000000E+00  2.54393072E-02  1.90085949E-01  8.52441130E-01  1.00000000E+00
  1.00000000E+00  1.00000000E+00  2.54393072E-02  1.90085949E-01  8.52441130E-01
  1.00000000E+00  1.00000000E+00  1.00000000E+00  2.54393072E-02  1.90085949E-01
  8.52441130E-01  1.00000000E+00  1.00000000E+00  1.00000000E+00  2.54393072E-02
  1.90085949E-01  8.52441130E-01  1.00000000E+00  1.00000000E+00  1.00000000E+00
Coordinates of each shell                  R   N=         258
  4.52797279E+00  9.85114233E-01 -3.17473990E-02  4.52797279E+00  9.85114233E-01
 -3.17473990E-02  4.52797279E+00  9.85114233E-01 -3.17473990E-02  4.52797279E+00
  9.85114233E-01 -3.17473990E-02  4.52797279E+00  9.85114233E-01 -3.17473990E-02
  4.52797279E+00  9.85114233E-01 -3.17473990E-02  4.52797279E+00  9.85114233E-01
 -3.17473990E-02  4.52797279E+00  9.85114233E-01 -3.17473990E-02  4.52797279E+00
  9.85114233E-01 -3.17473990E-02  4.52797279E+00  9.85114233E-01 -3.17473990E-02
  4.52797279E+00  9.85114233E-01 -3.17473990E-02  3.32478416E+00 -9.88137795E-01
 -7.36993192E-03  3.32478416E+00 -9.88137795E-01 -7.36993192E-03  3.32478416E+00
 -9.88137795E-01 -7.36993192E-03  3.32478416E+00 -9.88137795E-01 -7.36993192E-03
  3.32478416E+00 -9.88137795E-01 -7.36993192E-03  3.32478416E+00 -9.88137795E-01
 -7.36993192E-03  3.32478416E+00 -9.88137795E-01 -7.36993192E-03  3.32478416E+00
 -9.88137795E-01 -7.36993192E-03  3.32478416E+00 -9.88137795E-01 -7.36993192E-03
  3.32478416E+00 -9.88137795E-01 -7.36993192E-03  3.32478416E+00 -9.88137795E-01
 -7.36993192E-03  7.49087439E-01 -1.17219712E+00  2.00310970E-02  7.49087439E-01
 -1.17219712E+00  2.00310970E-02  7.49087439E-01 -1.17219712E+00  2.00310970E-02
  7.49087439E-01 -1.17219712E+00  2.00310970E-02  7.49087439E-01 -1.17219712E+00
  2.00310970E-02  7.49087439E-01 -1.17219712E+00  2.00310970E-02  7.49087439E-01
 -1.17219712E+00  2.00310970E-02  7.49087439E-01 -1.17219712E+00  2.00310970E-02
  7.49087439E-01 -1.17219712E+00  2.00310970E-02  7.49087439E-01 -1.17219712E+00
  2.00310970E-02  7.49087439E-01 -1.17219712E+00  2.00310970E-02 -8.12015319E-01
  1.05881355E+00  4.76210985E-02 -8.12015319E-01  1.05881355E+00  4.76210985E-02
 -8.12015319E-01  1.05881355E+00  4.76210985E-02 -8.12015319E-01  1.05881355E+00
  4.76210985E-02 -8.12015319E-01  1.05881355E+00  4.76210985E-02 -8.12015319E-01
  1.05881355E+00  4.76210985E-02 -8.12015319E-01  1.05881355E+00  4.76210985E-02
 -8.12015319E-01  1.05881355E+00  4.76210985E-02 -8.12015319E-01  1.05881355E+00
  4.76210985E-02 -8.12015319E-01  1.05881355E+00  4.76210985E-02 -8.12015319E-01
  1.05881355E+00  4.76210985E-02 -3.45082889E+00  3.65473034E-01  1.32280829E-03
 -3.45082889E+00  3.65473034E-01  1.32280829E-03 -3.45082889E+00  3.65473034E-01
  1.32280829E-03 -3.45082889E+00  3.65473034E-01  1.32280829E-03 -3.45082889E+00
  3.65473034E-01  1.32280829E-03 -3.45082889E+00  3.65473034E-01  1.32280829E-03
 -3.45082889E+00  3.65473034E-01  1.32280829E-03 -3.45082889E+00  3.65473034E-01
  1.32280829E-03 -3.45082889E+00  3.65473034E-01  1.32280829E-03 -3.45082889E+00
  3.65473034E-01  1.32280829E-03 -3.45082889E+00  3.65473034E-01  1.32280829E-03
 -5.62571470E+00 -2.05791176E-01 -3.68496596E-02 -5.62571470E+00 -2.05791176E-01
 -3.68496596E-02 -5.62571470E+00 -2.05791176E-01 -3.68496596E-02 -5.62571470E+00
 -2.05791176E-01 -3.68496596E-02 -5.62571470E+00 -2.05791176E-01 -3.68496596E-02
 -5.62571470E+00 -2.05791176E-01 -3.68496596E-02 -5.62571470E+00 -2.05791176E-01
 -3.68496596E-02 -5.62571470E+00 -2.05791176E-01 -3.68496596E-02 -5.62571470E+00
 -2.05791176E-01 -3.68496596E-02 -5.62571470E+00 -2.05791176E-01 -3.68496596E-02
 -5.62571470E+00 -2.05791176E-01 -3.68496596E-02  4.24149031E+00 -2.85953358E+00
 -3.96842488E-03  4.24149031E+00 -2.85953358E+00 -3.96842488E-03  4.24149031E+00
 -2.85953358E+00 -3.96842488E-03  4.24149031E+00 -2.85953358E+00 -3.96842488E-03
 -7.63449358E-02 -2.89373763E+00  8.37148677E-02 -7.63449358E-02 -2.89373763E+00
  8.37148677E-02 -7.63449358E-02 -2.89373763E+00  8.37148677E-02 -7.63449358E-02
 -2.89373763E+00  8.37148677E-02 -3.49032417E-01  2.14446122E+00  1.74818565E+00
 -3.49032417E-01  2.14446122E+00  1.74818565E+00 -3.49032417E-01  2.14446122E+00
  1.74818565E+00 -3.49032417E-01  2.14446122E+00  1.74818565E+00 -3.08781250E-01
  2.22212896E+00 -1.58888173E+00 -3.08781250E-01  2.22212896E+00 -1.58888173E+00
 -3.08781250E-01  2.22212896E+00 -1.58888173E+00 -3.08781250E-01  2.22212896E+00
 -1.58888173E+00 -7.57610104E+00 -7.07891409E-01 -7.19985657E-02 -7.57610104E+00
 -7.07891409E-01 -7.19985657E-02 -7.57610104E+00 -7.07891409E-01 -7.19985657E-02
 -7.57610104E+00 -7.07891409E-01 -7.19985657E-02
Constraint Structure                       R   N=          33
  4.52797279E+00  9.85114233E-01 -3.17473990E-02  3.32478416E+00 -9.88137795E-01
 -7.36993192E-03  7.49087439E-01 -1.17219712E+00  2.00310970E-02 -8.12015319E-01
  1.05881355E+00  4.76210985E-02 -3.45082889E+00  3.65473034E-01  1.32280829E-03
 -5.62571470E+00 -2.05791176E-01 -3.68496596E-02  4.24149031E+00 -2.85953358E+00
 -3.96842488E-03 -7.63449358E-02 -2.89373763E+00  8.37148677E-02 -3.49032417E-01
  2.14446122E+00  1.74818565E+00 -3.08781250E-01  2.22212896E+00 -1.58888173E+00
 -7.57610104E+00 -7.07891409E-01 -7.19985657E-02
Num ILSW                                   I              100
ILSW                                       I   N=         100
           0           1           0           0           2           0
           0           0           0           0        1009          -1
           5           0           0           1           0           0
           0           0           1           0           0           0
           1           1           0           0           0           0
           0           0      100000           0          -1           0
           0           0           0           0           0           0
           0           0           0           1           0           0
           0           0           1           0           0           0
           0           0           4          41           0           0
           0           0           0           0           0           0
           0           0           0           0           0           0
           0           0           0           0           0           0
           0           0           0           0           0           0
           0           0           0           0           0           0
           0           0           0           0           0           0
           0           0           0           0
Num RLSW                                   I               41
RLSW                                       R   N=          41
  1.00000000E+00  1.00000000E+00  1.00000000E+00  1.00000000E+00  0.00000000E+00
  0.00000000E+00  0.00000000E+00  1.00000000E+00  0.00000000E+00  0.00000000E+00
  0.00000000E+00  0.00000000E+00  1.00000000E+00  0.00000000E+00  0.00000000E+00
  0.00000000E+00  0.00000000E+00  1.00000000E+00  0.00000000E+00  0.00000000E+00
  0.00000000E+00  0.00000000E+00  1.00000000E+00  0.00000000E+00  0.00000000E+00
  0.00000000E+00  0.00000000E+00  1.00000000E+00  0.00000000E+00  0.00000000E+00
  0.00000000E+00  0.00000000E+00  1.00000000E+00  0.00000000E+00  0.00000000E+00
  0.00000000E+00  0.00000000E+00  0.00000000E+00  1.00000000E+00  1.00000000E+00
  0.00000000E+00
ECP-MxAtEC                                 I           250000
ECP-MaxLECP                                I               10
ECP-MaxAtL                                 I          2250000
ECP-MxTECP                                 I         11250000
ECP-LenNCZ                                 I                0
ECP-KFirst                                 I   N=         110
           0           0           0           0           0           0
           0           0           0           0           0           0
           0           0           0           0           0           0
           0           0           0           0           0           0
           0           0           0           0           0           0
           0           0           0           0           0           0
           0           0           0           0           0           0
           0           0           0           0           0           0
           0           0           0           0           0           0
           0           0           0           0           0           0
           0           0           0           0           0           0
           0           0           0           0           0           0
           0           0           0           0           0           0
           0           0           0           0           0           0
           0           0           0           0           0           0
           0           0           0           0           0           0
           0           0           0           0           0           0
           0           0           0           0           0           0
           0           0
ECP-KLast                                  I   N=         110
           0           0           0           0           0           0
           0           0           0           0           0           0
           0           0           0           0           0           0
           0           0           0           0           0           0
           0           0           0           0           0           0
           0           0           0           0           0           0
           0           0           0           0           0           0
           0           0           0           0           0           0
           0           0           0           0           0           0
           0           0           0           0           0           0
           0           0           0           0           0           0
           0           0           0           0           0           0
           0           0           0           0           0           0
           0           0           0           0           0           0
           0           0           0           0           0           0
           0           0           0           0           0           0
           0           0           0           0           0           0
           0           0           0           0           0           0
           0           0
ECP-LMax                                   I   N=          11
           0           0           0           0           0           0
           0           0           0           0           0
ECP-LPSkip                                 I   N=          11
           1           1           1           1           1           1
           1           1           1           1           1
ECP-RNFroz                                 R   N=          11
  0.00000000E+00  0.00000000E+00  0.00000000E+00  0.00000000E+00  0.00000000E+00
  0.00000000E+00  0.00000000E+00  0.00000000E+00  0.00000000E+00  0.00000000E+00
  0.00000000E+00
ECP-NLP                                    I                0
ECP-CLP1                                   R      0.000000000000000E+00
ECP-CLP2                                   R      0.000000000000000E+00
ECP-ZLP                                    R      0.000000000000000E+00
MxBond                                     I                4
NBond                                      I   N=          11
           1           3           3           4           2           2
           1           1           1           1           1
IBond                                      I   N=          44
           2           0           0           0           1           3
           7           0           2           4           8           0
           3           5           9          10           4           6
           0           0           5          11           0           0
           2           0           0           0           3           0
           0           0           4           0           0           0
           4           0           0           0           6           0
           0           0
RBond                                      R   N=          44
  2.00000000E+00  0.00000000E+00  0.00000000E+00  0.00000000E+00  2.00000000E+00
  1.41000000E+00  1.00000000E+00  0.00000000E+00  1.41000000E+00  1.00000000E+00
  1.00000000E+00  0.00000000E+00  1.00000000E+00  1.00000000E+00  1.00000000E+00
  1.00000000E+00  1.00000000E+00  3.00000000E+00  0.00000000E+00  0.00000000E+00
  3.00000000E+00  1.00000000E+00  0.00000000E+00  0.00000000E+00  1.00000000E+00
  0.00000000E+00  0.00000000E+00  0.00000000E+00  1.00000000E+00  0.00000000E+00
  0.00000000E+00  0.00000000E+00  1.00000000E+00  0.00000000E+00  0.00000000E+00
  0.00000000E+00  1.00000000E+00  0.00000000E+00  0.00000000E+00  0.00000000E+00
  1.00000000E+00  0.00000000E+00  0.00000000E+00  0.00000000E+00
Virial Ratio                               R      2.004356737695961E+00
SCF Energy                                 R     -2.851136888263483E+02
Total Energy                               R     -2.851136888263483E+02
RMS Density                                R      7.163186977914233E-09
External E-field                           R   N=          35
  0.00000000E+00  0.00000000E+00  0.00000000E+00  0.00000000E+00  0.00000000E+00
  0.00000000E+00  0.00000000E+00  0.00000000E+00  0.00000000E+00  0.00000000E+00
  0.00000000E+00  0.00000000E+00  0.00000000E+00  0.00000000E+00  0.00000000E+00
  0.00000000E+00  0.00000000E+00  0.00000000E+00  0.00000000E+00  0.00000000E+00
  0.00000000E+00  0.00000000E+00  0.00000000E+00  0.00000000E+00  0.00000000E+00
  0.00000000E+00  0.00000000E+00  0.00000000E+00  0.00000000E+00  0.00000000E+00
  0.00000000E+00  0.00000000E+00  0.00000000E+00  0.00000000E+00  0.00000000E+00
IOpCl                                      I                0
IROHF                                      I                0
Alpha Orbital Energies                     R   N=         246
 -1.87313736E+01 -1.40335258E+01 -9.98219489E+00 -9.95756156E+00 -9.90608087E+00
 -9.89654354E+00 -9.54315561E-01 -8.66524407E-01 -7.23673013E-01 -6.59434976E-01
 -5.57404222E-01 -5.27755291E-01 -4.80207345E-01 -4.39285917E-01 -4.32261450E-01
 -4.12892900E-01 -3.67200829E-01 -3.52491046E-01 -2.73481897E-01 -2.65088188E-01
 -2.35985725E-01 -2.20849362E-01 -3.03523933E-02 -1.97107474E-02 -5.57895599E-03
  9.38674668E-03  3.13775252E-02  4.70350572E-02  7.33936886E-02  9.53519473E-02
  9.84371176E-02  1.17981706E-01  1.35518998E-01  1.70009683E-01  1.73192259E-01
  1.77332862E-01  1.86780819E-01  1.87984229E-01  2.22229055E-01  2.56973453E-01
  2.81196236E-01  2.87604479E-01  3.29829110E-01  3.30552039E-01  3.33813895E-01
  3.39463079E-01  3.55471424E-01  3.70467358E-01  3.77941558E-01  3.99660364E-01
  4.13727922E-01  4.16491244E-01  4.31733697E-01  4.65157455E-01  4.67779737E-01
  4.81797724E-01  4.85746297E-01  5.40059061E-01  5.49465402E-01  5.52239409E-01
  5.73435926E-01  6.04068857E-01  6.36981602E-01  6.48601226E-01  6.54463847E-01
  6.81396204E-01  7.63677572E-01  7.84630329E-01  7.96110518E-01  7.99129351E-01
  8.44098289E-01  8.55103564E-01  8.66797591E-01  9.07033747E-01  9.15956329E-01
  9.51244706E-01  9.90011823E-01  1.00084200E+00  1.02860373E+00  1.04022285E+00
  1.07868422E+00  1.08173534E+00  1.10423657E+00  1.11195739E+00  1.15177463E+00
  1.17509845E+00  1.21259373E+00  1.22599061E+00  1.23728826E+00  1.29369893E+00
  1.31446163E+00  1.31940580E+00  1.34660495E+00  1.35547902E+00  1.37938683E+00
  1.38612067E+00  1.40800406E+00  1.43379929E+00  1.47754982E+00  1.53021864E+00
  1.53551323E+00  1.56626936E+00  1.60499838E+00  1.68307073E+00  1.68741921E+00
  1.73212281E+00  1.75052931E+00  1.82798371E+00  1.85298211E+00  1.91816848E+00
  1.92233209E+00  1.93540520E+00  1.97388012E+00  1.98540135E+00  2.05096354E+00
  2.08717919E+00  2.10527064E+00  2.11222392E+00  2.12984870E+00  2.17967391E+00
  2.20524574E+00  2.22583267E+00  2.23256223E+00  2.36674720E+00  2.37932001E+00
  2.42274767E+00  2.42470916E+00  2.43372054E+00  2.45278505E+00  2.46571895E+00
  2.48530166E+00  2.52721638E+00  2.57207917E+00  2.57738654E+00  2.57962549E+00
  2.62045777E+00  2.64783934E+00  2.66207700E+00  2.72426362E+00  2.73892835E+00
  2.75130094E+00  2.80851421E+00  2.81885593E+00  2.82238896E+00  2.86520953E+00
  2.86728577E+00  2.87449326E+00  2.87993761E+00  2.89280604E+00  2.91330375E+00
  2.92063784E+00  2.94169062E+00  2.95539742E+00  2.95902650E+00  2.96270978E+00
  2.98049149E+00  2.99277924E+00  3.01911297E+00  3.04535951E+00  3.04899667E+00
  3.07509416E+00  3.10809517E+00  3.11533459E+00  3.14954928E+00  3.16995180E+00
  3.20353219E+00  3.21333578E+00  3.24081135E+00  3.24784077E+00  3.28058896E+00
  3.30894192E+00  3.32865780E+00  3.33518939E+00  3.36571729E+00  3.38564472E+00
  3.44855821E+00  3.48170829E+00  3.49693350E+00  3.50231365E+00  3.53932774E+00